ITEM: TIMESTEP
2000
ITEM: NUMBER OF ATOMS
15000
ITEM: BOX BOUNDS pp pp pp
-1.1114931316018613e+00 5.1111493131601890e+01
-1.1114931316018613e+00 5.1111493131601890e+01
-1.1114931316018613e+00 5.1111493131601890e+01
ITEM: ATOMS id type xs ys zs vx vy vz
1849 1 0.0564191 0.0144976 0.113187 -0.00208688 -0.000723921 0.00299368
1850 2 0.0456448 0.0305937 0.114935 -0.00510815 0.0170583 0.011309
1851 2 0.0658813 0.0181901 0.0970833 -0.010211 -0.0156809 0.0223114
2929 1 0.107251 0.12474 0.0740303 0.002527 -0.00591802 0.00386513
2930 2 0.0910842 0.131774 0.0673705 -0.0308407 0.0127782 -0.0223697
10031 2 0.0076683 0.215738 0.0149037 -0.00174896 -0.00172821 0.00523673
3194 2 0.0208873 0.0384392 0.050237 0.024163 0.0203216 -0.00823631
3259 1 0.0818388 0.0258602 0.0700985 -0.00253411 -0.0019139 -0.00190399
3261 2 0.0889293 0.042649 0.065558 -0.0117118 0.0170765 0.00833487
5794 1 0.0784716 0.0831327 0.102883 0.000975203 0.00221902 -0.0063607
5795 2 0.0844832 0.0715375 0.115126 0.00216229 0.000651657 0.0241706
3195 2 0.0154851 0.0319313 0.0802152 -0.00939729 -0.012468 0.00624682
7889 2 0.0172562 0.113194 0.0105541 -0.0230853 -0.00516694 -0.0138171
9805 1 0.0321502 0.0604632 0.105055 0.00886839 -0.00183448 -0.00239963
9806 2 0.0476027 0.069465 0.0971527 -0.00974968 -0.0302467 -0.00935039
11845 1 0.0774112 0.0839859 0.0315754 -0.00239093 -0.00651779 -0.00157458
11846 2 0.0894757 0.0950308 0.0208578 0.0114673 0.0147082 0.0227468
11847 2 0.0658635 0.0952864 0.0414436 0.0125436 -0.0211155 -0.00694825
9655 1 0.259265 0.211205 0.00692764 -0.000493361 0.00511904 0.00119289
13764 2 0.202564 0.00584229 0.245751 -0.0267982 0.0174413 -0.0202829
13509 2 0.497169 0.216666 0.124302 0.0278593 0.00349963 0.0401375
6024 2 0.292385 0.0757525 0.00735113 0.0118156 -0.00973773 -0.0095626
8069 2 0.0359801 0.237218 0.130606 -0.00618008 0.0173988 0.00128752
5796 2 0.0891899 0.0978699 0.102793 -0.0221078 0.0116131 -0.0120074
3469 1 0.326627 0.0154484 0.0160938 0.000426899 0.00113708 0.0077396
10087 1 0.49899 0.0639339 0.0815511 -0.00388902 -0.00413074 -0.00168984
6900 2 0.00741763 0.111231 0.0966681 0.00892288 0.00491823 -0.00969985
9591 2 0.01409 0.106654 0.0453857 0.0254132 0.0357247 -0.0131282
11501 2 0.131982 0.207515 0.237524 0.020718 0.0186584 0.000627342
13523 2 0.49979 0.122417 0.0386019 0.0208161 -0.0275008 -0.0098517
11998 1 0.0389119 0.0504686 0.0254884 0.00286918 0.00148577 0.00273733
11999 2 0.0535924 0.0626003 0.0275157 0.0127777 0.0360936 -0.0232928
14602 1 0.466581 0.0116502 0.123909 -0.00116572 0.000668472 -0.00146279
10375 1 0.136005 0.00756225 0.0647175 0.00598449 0.00146435 0.0063751
3193 1 0.0120236 0.0261096 0.0625833 -0.00663814 0.000476438 -0.000188532
894 2 0.073336 0.0110972 0.14706 0.0197946 0.00354751 0.0229295
14650 1 0.0608408 0.195747 0.205045 -0.00442984 -0.00228809 -0.00683366
1796 2 0.201286 0.0700585 0.0575366 0.00668796 -0.027356 0.00701483
3363 2 0.245586 0.117264 0.0377821 -0.0151939 1.0434e-05 0.00604339
3754 1 0.137324 0.0795751 0.0243248 0.00355304 -0.00122685 0.00419665
3755 2 0.148634 0.0812386 0.0090616 0.00294361 0.00362533 0.0144598
3756 2 0.122252 0.091121 0.0208281 -0.00342179 0.000949114 0.00804314
6376 1 0.144868 0.0377831 0.109518 -0.00130681 -0.000385207 0.000375907
6377 2 0.140389 0.0554898 0.106908 0.0113363 -0.00702426 -0.00581966
7962 2 0.222008 0.112609 0.109806 -0.0122291 0.0100393 -0.00755194
8656 1 0.137569 0.0840068 0.0765093 0.00198522 0.00114046 0.000444412
8657 2 0.140374 0.0790395 0.0590517 0.0167027 0.00567593 -0.0156652
8658 2 0.122673 0.0950852 0.0755751 0.0272583 0.0161563 -0.0019922
10376 2 0.141052 0.016242 0.0811525 -0.0198671 -0.0180923 -0.0211145
1432 1 0.319523 0.0100087 0.154946 -0.00497646 0.00185878 -0.00522927
11029 1 0.198846 0.0875382 0.0259247 0.00257393 0.0063984 0.00533119
8215 1 0.425119 0.222423 0.0255698 -0.00601381 -0.00429033 -0.00122462
11031 2 0.201236 0.106471 0.0263502 0.0111127 -0.0194759 -0.00591679
1795 1 0.210228 0.0570115 0.068879 -0.00158662 0.000685824 -0.00611988
3470 2 0.315665 0.0279585 0.0251581 -0.0225571 -0.00468618 -0.00635811
6378 2 0.138545 0.0322648 0.125777 0.00994126 -0.0245609 0.0193306
2987 2 0.262605 0.103382 0.14042 0.00167618 0.00567061 -0.0017599
3761 2 0.486728 0.183549 0.226327 0.0169636 0.0158884 -0.0205976
2291 2 0.494158 0.0269305 0.196663 -0.00964312 0.022183 -0.0250019
10147 1 0.269753 0.0412763 0.101966 0.00539006 -0.000660447 -0.00881687
1797 2 0.222938 0.0486647 0.0569558 -0.0115688 0.0330191 0.0111173
3580 1 0.324823 0.0401084 0.0914832 0.00454123 -0.00130269 0.00394879
3581 2 0.327945 0.0480697 0.0750586 0.0191218 0.0021678 0.0130064
3582 2 0.305747 0.0414391 0.0948774 0.0164165 0.00138591 -0.0119673
9043 1 0.236565 0.0504349 0.0177981 -0.00503044 0.00303968 0.00294113
9044 2 0.243681 0.0495583 0.000562817 -0.0101151 -0.0149152 -0.0341913
9045 2 0.224366 0.0645369 0.018163 0.00117934 0.00190988 0.0085348
10149 2 0.255918 0.052486 0.105507 -0.0209659 -0.00227692 -0.0131378
10795 1 0.33585 0.0657226 0.0469346 -0.00141657 0.00286226 0.00264836
10796 2 0.349841 0.0596297 0.0367 0.00702237 -0.0203924 -0.0221904
10797 2 0.325237 0.0751319 0.0353487 0.000599343 0.00334866 0.0414016
11155 1 0.281947 0.0383815 0.0456462 -0.00531363 0.00277646 -0.00444446
11157 2 0.282778 0.0488648 0.0605825 -0.00250469 -0.0278949 -0.0126598
12904 1 0.312253 0.0979798 0.0923494 0.00655766 -0.00152725 0.00314713
12905 2 0.319435 0.101891 0.110235 -0.000678077 -0.0142726 0.01427
12906 2 0.325091 0.0900432 0.0812441 0.0210147 -0.0088304 0.0148218
14098 1 0.26961 0.0966015 0.0656381 0.000272811 -0.00683515 0.00315616
14099 2 0.286061 0.0951586 0.0753848 0.0167798 -0.00685872 8.77946e-06
14100 2 0.255619 0.0987227 0.0780984 0.0182509 -0.0261644 -0.00733911
42 2 0.362951 0.0476845 0.103115 -0.00929368 -0.00713871 -0.0173164
6023 2 0.28882 0.0926453 0.032011 -0.00445119 -0.00258146 -0.00726832
4784 2 0.032578 0.141673 0.235087 0.0149103 0.00369155 -0.00410739
11156 2 0.268405 0.0432765 0.0339801 -0.0254335 0.0102478 0.00259173
11931 2 0.277067 0.0570403 0.134447 -0.0103649 -0.0182344 0.0268766
2986 1 0.264265 0.1195 0.148452 0.00422611 -0.00456626 -0.00140792
3260 2 0.0827296 0.0145795 0.0553341 -0.00547363 0.00949935 -0.022816
10148 2 0.261924 0.025728 0.0961421 -0.0119617 -0.045369 -0.0196304
6022 1 0.299736 0.0885595 0.0179677 -0.00100708 0.000382712 -0.00341927
13831 1 0.142621 0.242884 0.00166301 -0.00245084 -0.00319307 -0.000609823
14668 1 0.407274 0.066187 0.00734376 -0.00283868 -0.00289964 0.00729279
14669 2 0.406278 0.0490352 0.0130887 -0.000374994 0.00267003 -0.0239433
7091 2 0.381649 0.014957 0.04226 0.00155665 0.00181089 -0.0130744
14670 2 0.414904 0.0754083 0.021423 0.0207677 0.0241009 0.00767929
41 2 0.387388 0.0320876 0.104349 -0.00842323 -0.00531475 0.0130269
4825 1 0.457136 0.0251054 0.0181726 -0.0021404 0.00153645 0.0041624
4826 2 0.44745 0.0356498 0.0307878 -0.00225898 -0.00625306 -0.044509
5158 1 0.441522 0.123266 0.0185629 0.000502105 -0.000631012 0.00450008
5159 2 0.446931 0.111952 0.00526341 0.00758284 -0.00148012 -0.0339989
5160 2 0.457904 0.129312 0.0249692 0.00888417 -0.0064112 0.0159724
6697 1 0.446041 0.0500305 0.0608862 0.00226231 0.000397891 0.00560838
6698 2 0.4455 0.0328723 0.0688965 0.0129894 -0.0214458 -0.0104069
6699 2 0.437807 0.0603192 0.0740606 0.0193278 -0.0135264 0.0146649
7090 1 0.395013 0.0259419 0.0369776 -0.00127693 0.000681044 -0.00657645
7092 2 0.40757 0.0244421 0.0515448 -0.00610939 0.0197205 -0.00119368
10564 1 0.426035 0.0117032 0.0873178 -0.00196468 -0.0013492 0.0031935
12561 2 0.0373428 0.000186172 0.198806 -0.0078944 -0.0364806 0.00393719
3054 2 0.49391 0.197225 0.16148 -0.0101904 0.00589487 -0.0307777
11833 1 0.431508 0.0892512 0.0907643 -0.00446009 0.000700133 -0.00203336
11834 2 0.418511 0.10089 0.084533 0.00105823 0.00928305 0.00533893
11835 2 0.447855 0.0977723 0.0917209 0.0134222 0.0186739 -0.0106682
13522 1 0.484971 0.13132 0.0427188 0.00201846 -0.00393004 0.00463368
13524 2 0.4795 0.124647 0.059221 -0.02568 -0.0233686 -0.0244267
14603 2 0.467293 0.0050185 0.140972 0.00323762 -0.0187165 0.00751683
4909 1 0.470575 0.122189 0.0912871 -0.000412484 -0.0037348 0.00627258
2535 2 0.20843 0.00901346 0.00744016 0.0192618 0.0147019 -0.0014918
3760 1 0.497655 0.167855 0.22957 0.00714464 0.000926838 -0.00121218
12932 2 0.117636 0.124885 0.00534049 0.0128164 -0.00874936 0.00313932
5951 2 0.409645 0.205114 0.235017 -0.00834588 0.0144552 0.00333712
10088 2 0.4825 0.0616609 0.0729553 -0.00178016 0.0312971 0.0109031
14604 2 0.463665 0.030232 0.125995 -0.00220229 0.0200071 0.0142773
2931 2 0.119069 0.138794 0.0721896 0.0218904 -0.0205279 -0.00318435
10862 2 0.041415 0.123253 0.0760283 -0.00892441 -0.0503284 -0.0171871
6898 1 0.0230447 0.117246 0.105343 0.000778349 -0.00324238 -0.000718141
7083 2 0.245473 0.1074 0.245202 -0.00660824 -0.00317302 0.0160919
13431 2 0.105873 0.232512 0.0374569 -0.000282076 0.0112708 -0.0378172
4 1 0.110883 0.0304899 0.0245462 -0.00313947 -0.00142798 0.00410804
10030 1 0.0255582 0.218972 0.0223766 0.00330613 -0.00525702 -0.0022993
2616 2 0.109831 0.19795 0.070395 0.00105437 0.0299407 0.0162658
3967 1 0.0920354 0.166673 0.0291159 0.00225609 0.00117425 -0.00160306
3968 2 0.0818743 0.170365 0.0448794 0.000475048 -0.00690432 0.0179004
3969 2 0.0851986 0.179715 0.016792 0.0225927 0.00772859 -0.0249878
6622 1 0.0382572 0.161891 0.0303213 -0.00137119 -0.00251847 -0.00338341
6623 2 0.0273827 0.175896 0.0252012 -0.0285663 -0.021559 -0.000652896
6624 2 0.0411552 0.150635 0.0156361 -0.0251956 0.0246798 0.00162435
10483 1 0.0749195 0.180165 0.0774369 -0.00581932 -0.00444214 -0.00383429
10484 2 0.072319 0.167881 0.0918775 -0.0106511 -0.00246018 0.0115414
10485 2 0.0592774 0.191764 0.0761585 -0.0178138 0.0123154 -0.0282087
10861 1 0.0471342 0.120991 0.0578616 -0.00406483 -0.00146523 0.00185605
10863 2 0.0437523 0.137499 0.0509623 -0.0405524 0.0272037 -0.00924746
11527 1 0.0410744 0.216703 0.0742258 -0.000863285 -0.00136071 0.00280352
11199 2 0.354265 0.0143113 0.204257 -0.00579405 -0.0108768 -0.00575598
11529 2 0.0309569 0.216232 0.059259 -0.00774484 0.00461202 0.0112034
12123 2 0.0455261 0.140653 0.110444 0.00322362 -0.0309405 -0.00311091
13312 1 0.0719754 0.204942 0.00100709 -0.00157786 -0.00263137 0.00088283
9713 2 0.122482 0.159238 0.0133288 0.0265312 -0.00235104 0.0045067
12121 1 0.0594048 0.150914 0.117292 0.000442072 -0.000604414 0.0058003
13314 2 0.0563228 0.206485 0.01142 0.00685666 -0.00840611 -0.0326563
13429 1 0.100579 0.249203 0.0328621 -0.00204948 0.00225009 -0.000576191
6618 2 0.162979 0.125744 0.123708 0.00791975 -0.0316094 0.0216789
7960 1 0.231358 0.0974106 0.103949 -0.000737165 -0.00658814 -0.0022776
7961 2 0.217089 0.0850365 0.100822 -0.00465687 -0.00925504 -0.0246503
2614 1 0.125289 0.202859 0.0612852 -0.00408959 -0.00217221 -0.00412787
3361 1 0.231767 0.12744 0.0299348 0.00117619 -0.00280229 0.00295115
2615 2 0.134197 0.1865 0.0575408 0.0210023 0.0380799 -0.0397677
422 2 0.206605 0.188104 0.111493 0.0106654 0.0159916 -0.00264601
423 2 0.226043 0.20653 0.124009 0.0115037 0.0169181 0.00777114
1123 1 0.199033 0.243179 0.0760484 0.0048776 5.20617e-05 -0.00330131
1124 2 0.202162 0.229269 0.0878334 -0.0125326 -0.00637391 -0.0341959
2092 1 0.154801 0.152207 0.0541731 0.00416718 0.00543077 0.00873112
2093 2 0.171845 0.159239 0.0532018 -0.0107548 0.00725864 0.0166093
2094 2 0.14622 0.156225 0.037077 -0.00838754 -0.000767066 -0.00707379
6235 1 0.246072 0.178288 0.0663711 0.00538893 -0.00118076 -0.00402728
11008 1 0.185923 0.221564 0.0273505 0.00191408 0.000237301 -0.00740468
11009 2 0.186965 0.202644 0.0281152 0.00672225 -0.00617998 0.0131537
12150 2 0.197546 0.144847 0.101542 0.0114703 0.014219 0.0117187
13207 1 0.202998 0.167724 0.0454159 -0.00191581 -0.00368 -0.00143249
13208 2 0.217505 0.178646 0.050447 -0.0134796 -0.0223817 -0.0084385
13209 2 0.210938 0.152766 0.0370461 0.00687586 -0.0225376 -0.014541
14326 1 0.171366 0.121276 0.0934872 0.00026171 0.00600855 -0.00244373
14327 2 0.161764 0.132524 0.0823968 -0.00415013 0.0114605 0.0116222
14328 2 0.163632 0.10519 0.0897918 0.00318038 0.0137457 -0.00216856
421 1 0.208184 0.205973 0.116307 -0.00474627 0.00442806 -0.00395303
12148 1 0.213792 0.1543 0.104392 -0.000606935 0.000801016 -0.00444299
12149 2 0.221396 0.157022 0.086976 -0.0249447 0.0175266 -0.00378177
6236 2 0.248899 0.196746 0.0698294 -0.00281248 -0.00502885 0.0152743
9712 1 0.140188 0.155167 0.00780531 0.00241557 0.000774847 -0.00516696
11010 2 0.196658 0.228183 0.0406273 -0.0259634 -0.0029399 -0.0182957
7641 2 0.167515 0.00545489 0.0442998 0.0111559 0.000865951 -0.022858
6659 2 0.0021637 0.00623401 0.231039 -0.0109896 -0.000418505 0.011882
11411 2 0.271194 0.148531 0.131491 -0.0352461 0.00588744 0.00601834
14169 2 0.389643 0.141577 0.128438 -0.00201942 0.00379435 -0.00174675
1315 1 0.253541 0.230318 0.0561131 -0.0029953 -0.0021896 0.00334764
2458 1 0.314801 0.183135 0.0198613 -0.00616376 -0.00117804 0.000148791
12000 2 0.0324245 0.0539571 0.00835164 -0.0100745 0.00249349 -0.0287006
2460 2 0.319848 0.169674 0.00814145 0.0280322 -0.0055455 0.0101915
3935 2 0.321118 0.235545 0.101005 -0.00783113 1.29908e-05 -0.0125491
3936 2 0.344923 0.225096 0.114297 0.0144396 0.0375307 -0.0210338
893 2 0.0775725 0.0138477 0.175012 -0.0202601 -0.00689903 0.0125999
6237 2 0.263743 0.171843 0.0610418 0.00276343 0.00353497 -0.0178706
7586 2 0.372885 0.218406 0.0372855 -0.0274974 0.0115785 0.013573
8174 2 0.381299 0.203749 0.107216 -0.0137734 0.0216303 0.0485669
8175 2 0.362506 0.182605 0.0951473 0.0256796 -0.00539009 -0.0176044
10501 1 0.342013 0.133547 0.0397648 0.00552212 -0.00938936 -0.00124619
10502 2 0.330277 0.130153 0.0253132 -0.0178897 -0.0131397 0.0137794
11410 1 0.275696 0.165287 0.124382 -0.0101154 -0.000395188 0.00667157
11412 2 0.27592 0.162495 0.106084 0.00876397 0.0146242 0.00338736
11713 1 0.290673 0.156848 0.0588243 -0.00236345 0.000453976 0.00182008
11714 2 0.300291 0.163092 0.0431436 0.0112186 0.00678592 0.02873
11715 2 0.300868 0.142812 0.0648477 0.000446701 0.00729535 -0.0137349
14308 1 0.310712 0.217306 0.07347 -0.00388127 -0.000403172 0.00173849
14309 2 0.319817 0.205322 0.0618208 -0.0117775 0.00415439 0.0302465
14310 2 0.292755 0.219836 0.0672075 -0.00212025 0.0103494 0.0456365
4246 1 0.268977 0.214701 0.127202 0.000810572 -0.00101804 0.00415291
4248 2 0.273725 0.196546 0.127337 0.00910106 0.00174175 0.00104715
8173 1 0.362973 0.197359 0.106927 0.00407512 -0.00600882 0.00049716
1316 2 0.259057 0.229235 0.0384963 -0.0135012 0.00342144 0.00144044
3934 1 0.332913 0.240189 0.114542 0.000364545 0.00107997 0.00066305
892 1 0.0860549 0.0172828 0.159199 6.55989e-05 0.00425771 0.000771233
3362 2 0.239837 0.138158 0.0177212 0.0112086 0.00328737 -0.00875701
13348 1 0.261064 0.154751 0.239383 0.00201307 -0.00262265 -0.00791349
4285 1 0.407803 0.130258 0.0553972 -0.00193496 0.00410631 0.00234533
4286 2 0.414391 0.146183 0.0619051 -0.00662271 -0.0126893 0.0157255
4287 2 0.417122 0.126485 0.0393225 0.0208625 0.0119534 0.00944658
8877 2 0.379023 0.141245 0.0784619 -0.0113525 0.0266173 0.0112992
4785 2 0.0479706 0.165893 0.233097 -0.00224992 -0.00976497 -0.0141217
10503 2 0.3567 0.122281 0.0375222 -0.0277348 0.00786724 0.0331074
12028 1 0.459206 0.174161 0.0964023 -0.00447668 0.00138804 -0.00307335
1699 1 0.408724 0.23629 0.105805 -0.000263199 -0.00246268 0.00793356
1700 2 0.411928 0.245063 0.0901277 0.0163384 0.013618 -0.00938945
1701 2 0.424834 0.237041 0.115735 0.00551459 0.0045037 0.00562392
3181 1 0.411119 0.18809 0.0784317 0.00471673 0.00510613 -0.00608648
3182 2 0.415672 0.203801 0.0851624 -0.0229339 0.0276078 -0.0194986
3183 2 0.401028 0.191721 0.0635152 -0.010688 0.0185569 0.00976189
6748 1 0.468056 0.186933 0.0445557 0.00775222 0.000845892 0.000180567
6749 2 0.470576 0.191369 0.0264754 0.021932 0.0342894 -0.00211641
7585 1 0.37626 0.200743 0.0414943 -0.00675216 0.00435199 0.00304813
6678 2 0.254578 0.0193105 0.190292 0.011749 0.013705 0.0145353
12910 1 0.401542 0.00389856 0.158749 -0.000450055 -0.000345397 -0.000684398
12985 1 0.470447 0.213326 0.227022 -0.00573346 -0.00423285 -0.00169496
10422 2 0.478383 0.00158261 0.0942279 0.0171707 -0.00109596 0.000900816
12029 2 0.470451 0.188437 0.0962203 0.000694557 -0.00446216 -0.00099137
12030 2 0.445569 0.180341 0.0853187 0.0016042 0.011455 -0.0025076
14110 1 0.450787 0.242097 0.134286 0.000343193 -0.00333656 -0.000385545
14112 2 0.464362 0.239457 0.121631 0.017327 -0.0219242 0.011393
4910 2 0.463936 0.139624 0.0943711 0.0119716 0.0199019 -0.00381755
5 2 0.117202 0.0476786 0.0215951 0.00963932 0.026338 0.00837408
12546 2 0.00166443 0.0887215 0.16227 0.00252586 0.00437952 -0.021693
13412 2 0.405018 0.222705 0.168207 -0.0130086 -0.00870654 -0.01119
9807 2 0.0241151 0.0735955 0.11501 0.0185361 0.0131987 -0.0344754
5753 2 0.0923574 0.0174349 0.247355 0.00322826 0.0113471 -0.0180861
5754 2 0.11617 0.0265071 0.234057 -0.00981431 -0.0187653 -0.00141139
2235 2 0.117219 0.0246678 0.165785 -0.00433922 -0.0179272 0.00782052
7639 1 0.183158 0.0113217 0.0372546 0.000607835 0.00124234 0.00375384
4827 2 0.472109 0.0338555 0.0133504 0.0088745 0.00281358 0.0138077
12912 2 0.411146 0.0166685 0.167351 -0.0474494 -0.0243937 0.0184126
797 2 0.21179 0.00743231 0.133498 -0.0203226 0.0125451 -0.0185392
5752 1 0.104229 0.0328778 0.2461 0.00242171 0.00272829 0.00225046
334 1 0.0966524 0.0720759 0.158682 -0.00395565 -0.00381799 0.00305606
14845 1 0.0344537 0.0819901 0.238891 -0.000123279 0.00218027 0.00362405
3323 2 0.0572408 0.116032 0.190041 0.0168298 0.00882451 -0.0129521
4247 2 0.279586 0.224341 0.115991 -0.0110738 0.00536324 -0.015668
5446 1 0.0518151 0.0829956 0.192457 0.00406502 -0.00160393 -0.00130155
5447 2 0.0686398 0.0767553 0.19549 -0.000939294 0.00573679 -0.00168573
5448 2 0.0430972 0.0825005 0.209964 -0.0186638 0.00149438 -0.0110039
6493 1 0.00737136 0.0150498 0.196351 0.00259652 -0.00244283 0.000694104
6494 2 0.0192693 0.0266253 0.189407 -0.0114498 -0.0216872 -0.00758967
3831 2 0.345023 -0.00124211 0.0442632 -0.0249792 0.00468518 0.000926242
6899 2 0.0194966 0.111297 0.123109 0.0128677 0.0066928 -0.0123324
13507 1 0.491971 0.215837 0.106092 -0.00413382 0.00340991 -0.00260206
1065 2 0.357882 0.0945908 0.248338 -0.0428764 0.027256 0.0179149
9920 2 0.00688812 0.0322428 0.126301 0.00188434 0.00246305 0.00821427
12544 1 0.0143476 0.0930389 0.151334 -0.0031349 -0.00458687 -0.00778875
12545 2 0.0299148 0.0886075 0.159817 9.86492e-05 -0.00321818 0.0167937
9315 2 0.296466 0.00244337 0.0670681 0.0212175 -0.00506616 -0.0271952
8875 1 0.364141 0.149324 0.0869462 -0.00243704 -0.00489041 0.000808043
335 2 0.0947565 0.053465 0.158487 -0.00521031 0.00122342 -0.0201445
336 2 0.103201 0.0760083 0.17544 0.00124526 -0.00967442 -0.0115555
5576 2 0.101818 0.061313 0.225199 0.00587595 0.00338091 0.00269915
12590 2 0.306858 0.190251 0.236661 -0.00884737 0.0177421 -0.000501429
2459 2 0.3154 0.197981 0.00873081 -0.0166872 0.0139901 0.0251095
6617 2 0.160249 0.105584 0.145982 -0.0232612 0.0210642 0.00543186
2234 2 0.14 0.0204385 0.184351 -0.0177468 -0.0352251 0.0220417
1771 1 0.195735 0.030542 0.109912 -0.00184893 -0.00126918 -0.000895898
8191 1 0.167372 0.239923 0.137253 -0.00111955 0.00119399 -0.00495774
3762 2 0.490439 0.159882 0.244869 0.0450463 0.00205076 -0.000343828
2233 1 0.135468 0.0257021 0.167036 -0.00152276 0.00364479 0.00155496
15 2 0.231316 0.0357717 0.221073 0.000544479 0.00372391 -0.00335652
13 1 0.241394 0.0488694 0.211093 0.00229527 0.000766958 0.00649112
36 2 0.209691 0.120471 0.221129 0.0339154 -0.0160117 -0.00570379
1772 2 0.202721 0.0424228 0.0975089 0.0203582 -0.010781 0.0110195
2680 1 0.146472 0.0979164 0.228851 -0.00167484 -1.60147e-05 -0.00259275
2681 2 0.159052 0.0848278 0.225348 -0.0122247 -0.0248147 -0.030577
2682 2 0.150297 0.112032 0.218114 -0.00113228 0.0119287 0.0263689
3328 1 0.192696 0.103791 0.193558 -0.000278463 0.00113664 0.00519974
3329 2 0.184665 0.11548 0.180389 0.0176728 -0.0153819 0.015611
3330 2 0.199748 0.0886562 0.186058 -0.00418355 -0.0140793 0.0521027
5575 1 0.103092 0.0752736 0.213019 -0.00346146 -0.00686691 -0.00543374
5577 2 0.115033 0.0870475 0.219999 0.00188055 -0.0286748 -0.00497403
8134 1 0.175873 0.0562575 0.220529 -0.00113679 0.00361968 0.00290179
8135 2 0.190621 0.0521183 0.230085 -0.00157775 0.000403333 -0.00363501
8136 2 0.168564 0.0399219 0.215832 -0.0172552 -0.00120491 0.00516938
13810 1 0.168474 0.0694369 0.149204 -0.000467756 -0.0042921 -0.0056014
13811 2 0.184279 0.0647482 0.158336 0.0121096 0.000869018 -0.00429214
13812 2 0.15643 0.0568954 0.154511 0.00383369 -0.00832133 -0.00398133
5071 1 0.217981 0.0643517 0.1688 0.00226714 0.00282516 -0.00328691
5072 2 0.223838 0.0576448 0.185959 0.00981566 -0.00855056 -0.0295815
5073 2 0.234551 0.0640993 0.159248 0.00405064 0.00271742 0.00687547
1773 2 0.176722 0.0335822 0.109509 0.00645348 -0.00244146 0.00643308
1434 2 0.322018 0.0137198 0.136853 0.0113322 -0.00590175 -0.00414543
40 1 0.379033 0.0481052 0.110833 -0.0019933 0.000652251 0.00248332
6668 2 0.299112 0.00921381 0.233022 -0.0186682 0.00575031 -0.00820249
14 2 0.246429 0.0627701 0.222565 -0.00233328 0.0138944 0.0185127
4911 2 0.486266 0.121073 0.101288 0.00896064 -0.00592516 0.000337202
13301 2 0.475071 0.235377 0.178097 0.00764144 -0.00634409 -0.0114975
11929 1 0.270563 0.063733 0.150592 0.00433821 0.00605117 0.00510148
11198 2 0.375537 0.0328428 0.210545 0.0122329 -0.0108068 -0.00643793
9172 1 0.306854 0.242586 0.185204 -0.0039749 -0.00227277 0.00242415
1237 1 0.357416 0.0792672 0.182704 -0.000741124 0.00380477 -0.00268638
1238 2 0.351816 0.0614438 0.18272 -0.0253554 0.0135597 -0.0218859
1239 2 0.357068 0.0855367 0.19994 0.012531 -0.0135531 -0.00803804
2279 2 0.315597 0.145916 0.190478 -0.046657 0.0101774 -0.0244663
2988 2 0.269752 0.116369 0.165245 -0.014391 -0.0203198 0.00224233
5923 1 0.328774 0.108086 0.140203 -0.00584713 0.00997752 0.00223263
5924 2 0.329243 0.122529 0.15312 0.0165827 0.0068982 0.0108756
5925 2 0.333039 0.0930664 0.149998 0.00536146 0.00070144 0.0035771
6667 1 0.31359 0.0162965 0.223477 0.00380369 -0.0038364 0.00921742
8217 2 0.421794 0.209416 0.0390554 0.0238337 0.0122159 0.0125622
7477 1 0.300642 0.10217 0.214643 -0.000172104 0.00126677 0.00067516
7478 2 0.307494 0.117764 0.220723 -0.0265716 0.000121705 0.0124058
7479 2 0.28529 0.0996332 0.225082 0.00939722 -0.0141167 0.011691
11197 1 0.364325 0.0272108 0.196794 0.00130185 0.00617759 -0.00136514
11930 2 0.282953 0.057024 0.162618 0.0102579 0.00540803 -0.0137455
12451 1 0.304582 0.0539126 0.188424 0.00386054 -0.000479773 -0.00593683
12452 2 0.299654 0.0711979 0.193298 -0.0120135 -0.0229042 0.019173
12453 2 0.310957 0.044288 0.203462 0.00600361 0.00226196 -0.00771614
7081 1 0.256532 0.0926563 0.241358 0.00285016 0.000698722 -0.000764964
35 2 0.207947 0.140621 0.242578 -0.00424036 -0.0110703 -0.0144465
11528 2 0.042401 0.234421 0.0772232 0.0102488 0.00127927 0.0120805
12100 1 0.37109 0.113116 0.224126 0.00182392 0.00471558 -0.00782319
12102 2 0.362157 0.123948 0.211713 0.0205544 -5.75599e-05 -0.0146374
2278 1 0.33069 0.143126 0.178987 0.00261637 -0.00531481 2.34324e-05
5289 2 0.492712 0.105312 0.158204 0.00755277 0.016747 -0.00762343
7629 2 0.474323 0.0718093 0.136035 -0.00437421 0.0128331 0.00618535
7628 2 0.449816 0.067383 0.12232 -0.006971 -0.0239297 0.0242476
5950 1 0.414493 0.219373 0.224145 -0.0027221 -0.00512826 0.00455588
10961 2 0.458652 0.00920516 0.228494 -0.02598 -0.0170144 0.00088847
3052 1 0.481383 0.206695 0.170238 -0.00323093 -0.000801796 -0.00145902
2290 1 0.476037 0.0246114 0.198671 0.00754898 0.00780772 -0.0044589
7627 1 0.460672 0.0598386 0.134427 0.00567378 -0.00226909 0.00176678
10769 2 0.429698 0.125233 0.14521 -0.0122675 0.000372919 -0.0131483
8700 2 0.478934 0.222491 0.0480513 0.00710668 -0.00472509 0.0163314
4915 1 0.392333 0.0848142 0.147267 0.000928232 0.00136978 0.00432527
4916 2 0.377388 0.0844822 0.159291 -0.0117294 -0.00632172 -0.00860785
4917 2 0.390925 0.0700732 0.134805 -0.013242 0.00786734 0.00662846
5287 1 0.481457 0.10668 0.173461 0.00112079 -0.0022111 0.00578072
5288 2 0.464011 0.110668 0.167074 -0.0354846 0.00119194 -0.0290871
9973 1 0.418847 0.109128 0.209228 0.00496589 0.000137725 0.000873468
9974 2 0.424869 0.108392 0.191399 0.0347574 0.0112073 -0.00141603
9975 2 0.434056 0.102566 0.217509 0.0107004 -0.0172643 -0.031734
10768 1 0.434665 0.111085 0.155701 0.000452116 -0.0106706 0.00418986
10770 2 0.421228 0.0976586 0.153951 -0.0184015 0.0285933 -0.00605671
12101 2 0.389453 0.113271 0.218037 0.00793471 -0.00857667 -0.000708963
12712 1 0.415283 0.0354181 0.221689 0.000340227 0.00152935 -0.00356442
12713 2 0.423611 0.0433238 0.206605 -0.0118891 0.00535699 0.0087785
12714 2 0.428896 0.028673 0.231414 -0.0300832 -0.019314 -0.00320816
12911 2 0.383708 0.00517192 0.163827 0.00230866 -0.0178455 0.0189331
13369 1 0.466501 0.0719296 0.211286 -0.000615423 -0.00241688 -0.00495058
13370 2 0.472354 0.054962 0.205882 0.0188678 0.00226243 -0.00715181
13371 2 0.469576 0.0838529 0.196991 -0.00903202 0.00531536 0.0151362
14143 1 0.426236 0.0490978 0.173096 -0.00303264 0.00196912 -0.00466021
14144 2 0.412702 0.0612122 0.168712 -0.0158934 0.00385624 -0.00238557
14145 2 0.439741 0.0509326 0.159983 -0.0216695 0.00302286 0.0214312
2292 2 0.472402 0.00902047 0.190955 0.012561 -0.00696956 0.00251369
14168 2 0.387776 0.169927 0.135587 -0.0166542 -0.0160848 0.00759478
2063 2 0.0224304 0.200221 0.10978 0.00198005 0.0100156 0.00863537
34 1 0.219537 0.128251 0.234955 0.000725298 -0.00174636 0.00143986
2062 1 0.020236 0.207805 0.126243 -0.00329203 0.000679102 -0.00107051
2064 2 0.00109128 0.21194 0.12647 -0.0218096 0.0104842 -0.0130156
12623 2 0.263145 0.174374 0.00340549 -0.0142792 0.00693973 -0.0194406
4369 1 0.0985068 0.120965 0.135902 -0.00270754 0.00695025 0.00494838
4371 2 0.0948482 0.104371 0.14345 0.0254406 0.00193244 -0.00160996
7587 2 0.375783 0.190734 0.0254698 0.0267777 -0.0166896 0.000214672
1433 2 0.314561 0.0260176 0.162843 0.0101373 0.0158674 -0.00775153
3322 1 0.0579602 0.134731 0.193281 -0.00523379 -0.0028637 0.00290057
1786 1 0.0757912 0.192507 0.13978 0.00623347 -0.00156895 0.000949752
1787 2 0.0692135 0.177038 0.131973 -0.0133588 -0.000554922 0.0112517
11583 2 0.00926375 0.230544 0.172739 0.00388342 0.00814513 0.00137139
12122 2 0.0739876 0.139908 0.122753 -0.0246056 -0.000822884 0.00717922
1788 2 0.0624178 0.204859 0.141629 0.00061219 0.000236678 -0.0119257
3324 2 0.0451487 0.142578 0.183019 0.00230837 -0.00140439 -0.024164
6826 1 0.02276 0.173715 0.176825 -0.0018434 -0.002244 -0.00458697
6827 2 0.0355561 0.184162 0.184512 0.0151714 0.0098761 -0.0334497
6828 2 0.0247455 0.176349 0.158919 -0.0123475 -0.0326851 0.0133501
12986 2 0.452703 0.214892 0.229523 -0.00124458 -0.0164161 -0.00066636
1317 2 0.24215 0.244643 0.05766 0.00772824 -0.00738056 0.0411602
3734 2 0.16827 0.244701 0.0690461 0.00527116 -0.0111592 -0.0070574
11581 1 0.0201138 0.236588 0.185865 0.002658 0.000187836 -0.00608933
11582 2 0.0165731 0.22812 0.20217 -0.0136236 0.00376954 -0.00696251
13837 1 0.119455 0.220876 0.141951 0.00249311 -0.00550574 -0.00184531
13839 2 0.108422 0.205937 0.140585 -0.0153577 0.0246962 0.0104869
9656 2 0.274628 0.219349 -0.000324903 -0.00934115 -0.00085435 0.00422631
11030 2 0.1872 0.0856686 0.0111802 -0.00745669 0.0103429 -0.0206772
5022 2 0.455688 0.174194 0.13104 -0.0139237 -0.011587 0.00915863
4370 2 0.113761 0.12791 0.144651 0.00583731 -0.00490781 0.0180548
6616 1 0.159416 0.123244 0.142629 0.00026915 0.00580225 -0.000831635
11479 1 0.14308 0.199174 0.188409 -0.00217674 -0.00583338 0.00213191
11480 2 0.141768 0.207963 0.172246 0.0113737 0.0168598 0.011524
11481 2 0.131565 0.208017 0.200219 0.0202777 -0.0105932 -0.00501993
11857 1 0.11792 0.229294 0.219064 -0.000133334 -0.00543363 -0.00471711
14518 1 0.13688 0.144173 0.183168 0.00631354 -0.00387622 -0.00136376
14519 2 0.146411 0.1368 0.169231 -0.00528017 0.00958134 0.013444
14520 2 0.140692 0.162546 0.182481 0.00287874 -0.014868 0.000450792
14869 1 0.0992006 0.158464 0.218273 -0.0073068 0.003603 -0.00230943
14870 2 0.0846151 0.15185 0.207764 -0.0259498 -0.0280747 0.0154668
14871 2 0.114289 0.158312 0.207499 -0.0309143 -0.0122336 -0.0132515
4959 2 0.212827 0.156437 0.141008 0.0017569 -0.0129742 0.00114492
1306 1 0.0700293 0.241641 0.241071 -0.00326096 -0.00115281 0.000925472
13762 1 0.213409 0.020339 0.245806 -0.00116536 -0.0041261 -0.00179122
7597 1 0.214791 0.222511 0.204707 0.00312439 0.00423954 -0.00311115
7598 2 0.206248 0.205798 0.202827 0.0299746 -0.000688052 -0.0180108
7599 2 0.203598 0.236588 0.198422 0.0186281 -0.00914564 0.0126601
7640 2 0.185842 0.0282995 0.0428378 -0.0167402 -0.0092874 -0.00728199
8192 2 0.180535 0.22678 0.13164 -0.00767009 -0.0127696 0.00696225
5952 2 0.407082 0.212687 0.208513 0.0219752 -0.0104957 0.00623112
9562 1 0.188049 0.178918 0.207849 0.00561968 0.00505853 -0.00235995
9563 2 0.194889 0.173104 0.191182 -0.0242666 0.00423109 -0.00687827
9564 2 0.17052 0.184931 0.203712 0.0102993 -0.0259235 0.0233527
10929 2 0.248846 0.213549 0.182339 -0.0156056 -0.00674089 0.0166136
13413 2 0.412949 0.194643 0.165176 -0.0132856 -0.00686584 -0.00386005
4957 1 0.215227 0.158373 0.159559 -0.00570026 -0.00450888 0.00474106
4958 2 0.231032 0.152778 0.164267 0.00661606 0.0240823 0.0119475
13350 2 0.244708 0.145132 0.236725 0.01437 -0.00930712 -0.0211362
13411 1 0.400579 0.205717 0.173926 -0.00176372 -0.000244882 -0.000733098
13430 2 0.0831952 0.249313 0.0362451 0.0101882 0.000734373 -0.00532127
5779 1 0.137001 0.00837162 0.213821 0.00399874 -0.00279579 -0.00424576
13833 2 0.129525 0.248144 0.0140339 0.0592012 -0.0163619 -0.00855441
3205 1 0.355368 0.165043 0.232776 0.0066398 -0.00188239 -0.00445475
3207 2 0.338834 0.158902 0.239323 -0.012418 -0.00318733 0.00653136
5021 2 0.429881 0.166266 0.144221 0.0057406 -0.00807363 -0.00791728
10927 1 0.266288 0.215068 0.177964 -0.00383329 -0.00211002 0.0016226
10928 2 0.267231 0.219958 0.159259 0.00619335 0.00200775 -0.0184869
3206 2 0.350655 0.17558 0.217986 0.0284814 -0.00612746 -0.0231642
8876 2 0.348616 0.143263 0.077196 -0.00158205 0.0136616 -0.0257138
2280 2 0.329651 0.156182 0.164886 0.000570713 -0.0118378 0.00749041