ITEM: TIMESTEP
1000
ITEM: NUMBER OF ATOMS
15000
ITEM: BOX BOUNDS pp pp pp
-1.1114931316018613e+00 5.1111493131601890e+01
-1.1114931316018613e+00 5.1111493131601890e+01
-1.1114931316018613e+00 5.1111493131601890e+01
ITEM: ATOMS id type xs ys zs vx vy vz
1849 1 0.0631352 0.0132669 0.0998243 0.000294317 0.00240269 0.00237426
1850 2 0.055312 0.0294759 0.104134 0.0167555 -0.00433171 0.028988
1851 2 0.0724865 0.0136224 0.0845924 0.0122821 -0.0157516 -0.00793072
2929 1 0.10889 0.121698 0.0874339 -0.00502309 0.00343462 -0.00179959
2930 2 0.0916307 0.124827 0.0814503 -0.00258412 -0.00857924 0.023413
3193 1 0.0252233 0.059154 0.0704544 -0.00364683 -0.00343519 -0.000752428
3194 2 0.0432671 0.0607045 0.065187 0.0138238 -0.0148855 -0.00409579
3259 1 0.089555 0.0201206 0.0485739 -0.00208074 -0.00535971 0.0105293
3261 2 0.0830705 0.0319582 0.0348439 -0.0254218 0.0184302 -0.0107259
5794 1 0.0747639 0.0729467 0.0952875 -0.00343877 -0.00501222 -0.00699676
5795 2 0.086612 0.074614 0.0811873 0.0044651 -0.011309 0.0232702
3195 2 0.0242712 0.0627624 0.0885576 -0.0142005 -0.0162503 -0.0185632
7889 2 0.0172009 0.109441 0.0151356 -0.00170475 0.00872533 0.00480527
9805 1 0.0264686 0.0672731 0.124521 -0.00455666 0.00247638 -0.00292596
9806 2 0.0423315 0.0710433 0.115024 0.0017496 0.00319651 -0.0199538
11845 1 0.0570251 0.0931097 0.0405108 -0.00379586 -0.00721081 -0.0101124
11846 2 0.0631247 0.100288 0.0246111 -0.000561477 0.0219947 -0.0108219
11847 2 0.0609012 0.105428 0.0529372 0.00423368 0.0423654 -0.00717314
12931 1 0.123804 0.10892 0.0385166 -0.00555383 0.003621 0.00593488
12933 2 0.110879 0.116158 0.0273047 0.0107498 -0.00319811 0.0351209
12932 2 0.118823 0.114328 0.0562542 0.0299556 0.0227152 -1.31312e-05
8494 1 0.0845124 0.120226 0.00400425 -0.00229597 -0.00366772 -0.000155969
7143 2 0.0194762 0.0222907 0.0526795 0.00990628 -0.00953346 -0.0362212
5796 2 0.0842075 0.0729844 0.111551 0.0011349 0.0187085 -0.00279281
7142 2 0.00301984 0.00532538 0.0329537 -0.00230607 0.00398708 -0.012907
3260 2 0.102211 0.00829737 0.040024 -0.00346581 -0.0132046 0.0107537
6900 2 0.0225399 0.123207 0.106844 0.00179713 -0.0157504 0.00441867
9591 2 0.0130578 0.0892179 0.0485171 0.00211682 -0.0174132 0.00518209
9589 1 0.00292193 0.103412 0.0454991 -0.00518209 0.00728769 0.00163322
6197 2 0.103001 0.0590089 0.00312787 -0.00679613 0.0154981 -0.0127232
11998 1 0.0694641 0.0532859 0.0116115 0.00493173 -0.00435663 0.00274814
11999 2 0.0648147 0.0658164 0.0256785 0.000177958 0.0305387 0.0149916
7141 1 0.0194425 0.00596277 0.0424888 -0.00840911 0.00327019 -0.00148754
6198 2 0.123461 0.0812608 0.00647469 0.0123746 -0.0253785 -0.0186904
4 1 0.147574 0.0272085 0.0259561 0.000530322 0.00306801 -0.00239193
5 2 0.14897 0.0151632 0.0119062 -0.0107382 -0.0120881 -0.00942558
6 2 0.141489 0.0429388 0.0179864 0.0198318 -0.0297891 0.0250282
1796 2 0.229726 0.0370811 0.0652066 -0.00507573 0.00765866 0.00392925
3363 2 0.248132 0.12218 0.0255119 -0.00187095 0.023729 0.025024
3754 1 0.197949 0.0407611 0.0576839 -0.00728943 0.00252423 -0.00705224
3755 2 0.202252 0.0528163 0.0426591 -0.00368186 0.0115071 -0.00122723
3756 2 0.181884 0.0309691 0.0533488 -0.0213704 0.00411941 -0.000841967
6376 1 0.184302 0.0526898 0.109611 -0.00225642 0.00122428 0.00754965
6377 2 0.190635 0.0554239 0.0926599 -0.042554 -0.0254193 -0.0349978
7962 2 0.245015 0.121538 0.0831183 0.00206777 -0.00546027 -0.0251712
8656 1 0.176309 0.108965 0.0429648 -0.00216617 -0.003267 -0.00200252
8657 2 0.187236 0.0990346 0.0321226 -0.00390134 0.0019059 -0.0120617
8658 2 0.158429 0.108562 0.0364598 0.00130878 -0.00301086 -0.021882
10376 2 0.155479 0.0173023 0.0912742 -0.00120342 0.0301632 -0.00608342
10377 2 0.147318 0.0149581 0.061085 -0.0070145 -0.0193473 -0.0314264
11029 1 0.212671 0.0739335 0.0182737 -0.00114402 -0.0011318 -0.000119207
11030 2 0.202374 0.065973 0.00524241 0.0022563 0.00598824 -0.00710042
11031 2 0.226605 0.0827203 0.0093683 0.0146502 -0.00541032 -0.00921665
1795 1 0.246942 0.0305979 0.068133 -0.00680296 0.000336559 -0.000149143
7640 2 0.223708 0.00298184 0.051013 -0.0139261 0.0274664 0.0126584
6378 2 0.177422 0.0691086 0.114849 -0.000107925 0.0109472 -0.0134403
2987 2 0.246815 0.0934609 0.118092 -0.000183883 -0.000305515 -0.00907216
10375 1 0.154373 0.00710129 0.0759241 -0.000549857 -0.00305598 -0.00326836
3470 2 0.340692 0.0353967 0.00991677 0.0246491 -0.0118561 0.000824701
10147 1 0.290788 0.0240938 0.0920996 -0.00346126 0.00371558 -0.000308241
1797 2 0.259456 0.0402666 0.0580175 0.000169309 0.00165827 0.0152817
3580 1 0.315273 0.0621866 0.116352 -0.00622177 -0.00590745 0.0017486
3581 2 0.318335 0.0769738 0.105923 -0.0134626 -0.0295205 -0.0110166
3582 2 0.308128 0.0478207 0.104921 0.00226518 0.00259211 0.0174478
9043 1 0.273425 0.063833 0.0386237 0.00279806 0.00109798 -0.0111114
9044 2 0.266578 0.064 0.0205034 -0.0198797 0.00619585 0.0226646
9045 2 0.282309 0.0801653 0.0406389 0.0235275 0.00101944 0.0112527
10149 2 0.276813 0.0275889 0.080881 -0.0182873 0.0100898 0.00231962
10795 1 0.342129 0.0798555 0.0463258 0.00418569 0.00192712 0.000285073
10796 2 0.361531 0.0777177 0.0442466 0.00468879 -0.01653 -0.00911154
10797 2 0.337731 0.0929488 0.0339876 0.00553066 0.0162114 -0.00139075
11155 1 0.316757 0.0340999 0.0292015 -0.00416182 0.00200343 0.00718018
11157 2 0.321793 0.0518819 0.0352551 -0.00247338 -0.00507943 -0.0116748
12904 1 0.318719 0.111572 0.0950375 0.00274845 0.00525577 0.00521647
12905 2 0.318692 0.123596 0.109217 0.0191971 -0.014219 0.00301612
12906 2 0.332127 0.116907 0.0819918 -0.014501 0.0156223 0.0173099
14098 1 0.29213 0.115633 0.0537775 0.00365381 0.000231519 -0.00111163
14099 2 0.301543 0.110056 0.0708156 0.00247556 0.0015124 0.00776096
14100 2 0.274233 0.119518 0.0588215 -0.0137753 0.00294387 0.00417412
42 2 0.354694 0.0565858 0.121085 0.0130133 -0.00451431 -0.0173106
6023 2 0.301826 0.113002 0.0253656 0.00555934 0.00187268 -0.0120549
3831 2 0.354157 0.0126192 0.0351551 0.0081033 -0.0204737 0.0102193
11156 2 0.298536 0.03386 0.0305259 -0.00789119 -0.00265636 0.0234099
11931 2 0.260499 0.0424435 0.117611 -0.025282 -0.00965241 -0.0131952
2986 1 0.254151 0.110037 0.114776 -0.00516941 -0.000628743 -0.0019739
3829 1 0.364617 0.00287454 0.0482831 -0.000296181 -0.00132232 -0.00389402
10148 2 0.290946 0.00603762 0.0916001 0.00505522 0.028588 -0.00644534
6022 1 0.31005 0.109559 0.00781709 0.00104835 -0.00577151 -0.00190983
13523 2 0.493549 0.0966881 0.0531868 -0.00755749 -0.00226388 -0.00490365
14668 1 0.39181 0.0721148 0.0412794 0.0011834 -0.00667486 0.00349853
14669 2 0.390249 0.0628373 0.0583167 0.0161506 0.00958624 -0.0288173
7091 2 0.379646 0.0291595 0.0657356 0.00666644 0.0168712 -0.0221601
14670 2 0.404254 0.0846248 0.0425333 0.0182912 -0.0104987 -0.00907689
41 2 0.380873 0.0483688 0.108863 0.0117083 0.00313903 -0.00389285
4825 1 0.473086 0.0405291 0.0210173 0.0022558 -0.00379742 0.00158046
4826 2 0.468249 0.0487526 0.0365096 0.0200602 0.0116333 0.0171274
5158 1 0.428381 0.109135 0.0452405 -0.00467984 0.00917175 -0.00347092
5159 2 0.430554 0.113389 0.0266911 0.0128391 0.0161677 0.00892024
5160 2 0.444352 0.101835 0.0506424 -0.0178314 -0.0107661 0.00203245
6697 1 0.459843 0.0542707 0.0782071 -0.00097104 0.00404444 -0.00283863
6698 2 0.45134 0.0382406 0.0743502 0.0020795 -0.0176614 -0.0075062
6699 2 0.447982 0.0682237 0.0804217 0.00247361 0.0266318 0.0166867
7090 1 0.390889 0.0359715 0.0792288 -0.00491135 0.00409468 -0.00261367
7092 2 0.406378 0.0254274 0.0799945 -0.0150067 0.00984598 -0.00512629
10564 1 0.438759 0.00791557 0.0721553 -0.00611768 0.000241465 0.00542524
10566 2 0.447037 0.00258427 0.056035 0.00487822 -0.00921829 0.0057506
7136 2 0.413418 0.0420392 0.00132583 0.021426 0.000501921 0.00990002
11833 1 0.436107 0.0937474 0.11055 -0.00576203 0.00137341 0.00397758
11834 2 0.42441 0.10817 0.108356 0.0157985 0.00185648 -0.0419725
11835 2 0.453227 0.100159 0.109052 -0.00242459 0.000114769 0.0168445
13522 1 0.47682 0.102996 0.0596041 0.00479139 -0.00397667 -0.00144715
13524 2 0.479075 0.104479 0.0784964 -0.0287803 0.0249398 -0.0254228
4827 2 0.475114 0.0555368 0.00915745 -0.00178895 0.0300424 -0.0198123
4909 1 0.487748 0.105057 0.109132 0.00112232 0.00913426 0.00106098
2709 2 0.37661 0.0801442 0.00865763 -0.0201631 -0.0186987 0.0033629
4911 2 0.497855 0.0902203 0.10381 0.00166938 0.00473445 -0.00802068
6282 2 0.494159 0.0908236 0.0100195 0.00859026 0.0139994 -0.0171167
4910 2 0.498358 0.117079 0.118813 -0.00170874 0.0115739 0.0199887
10088 2 0.490084 0.0594367 0.084872 -0.0151891 0.00562983 0.0138353
14604 2 0.473736 0.0128951 0.114671 0.0252173 0.000148057 0.0221193
2931 2 0.107919 0.129925 0.104989 0.00597019 -0.0276935 0.00978519
10862 2 0.0491929 0.138194 0.0878718 0.0197059 0.0255717 -0.0122459
6898 1 0.0378591 0.127212 0.115205 0.000577847 -0.000562282 -0.000564321
6380 2 0.00726566 0.192354 0.0860423 0.00882172 -0.000251649 -0.00187063
13431 2 0.119102 0.241121 0.0505915 -0.0205905 -0.00484184 -0.00377407
8496 2 0.0845689 0.137962 0.00993126 0.00232338 0.020163 -0.00133989
10030 1 0.0159592 0.244283 0.0332128 0.00326628 0.00245549 0.00182976
2616 2 0.114814 0.212104 0.0794413 0.0156887 0.0214846 -0.0119211
3967 1 0.082292 0.172765 0.0206794 0.0036279 0.00189646 -0.000309365
3968 2 0.0796757 0.177094 0.0388392 0.00227506 0.00659141 -0.00467762
3969 2 0.0700659 0.181031 0.0105056 0.0250348 0.0239654 0.00490786
6622 1 0.0229416 0.16672 0.0399969 0.00264029 -0.00569769 0.0024232
6623 2 0.015681 0.16277 0.023417 0.0138314 0.0154712 -0.0451005
6624 2 0.0199397 0.184818 0.0418959 0.00972564 -9.96064e-05 0.0253739
10483 1 0.0812745 0.193872 0.0718946 0.00154588 0.0039406 0.00367043
10484 2 0.0836721 0.184594 0.0880562 0.0105202 -0.0230186 0.00334194
10485 2 0.0648531 0.202831 0.0750365 -0.00427514 -0.0128129 0.0224994
10861 1 0.0575562 0.137474 0.0696758 -0.00308659 0.00549387 -0.00162578
10863 2 0.0448438 0.144838 0.0575906 -0.0280006 0.000907205 -0.0137022
11527 1 0.0305893 0.216025 0.071986 0.00401645 0.00391519 0.00987781
11528 2 0.0312418 0.22545 0.0559518 -0.00424261 -0.0148508 0.0278251
11529 2 0.0222423 0.228391 0.0845195 -0.0181146 -0.000370358 0.00449555
12123 2 0.0684656 0.151923 0.118072 -0.00423192 -0.00953952 -3.6888e-05
13312 1 0.0632644 0.240961 0.00530026 0.00521124 -0.000336972 -0.00209354
9713 2 0.115466 0.180879 0.00764149 0.0115471 -0.0264001 0.0290258
12121 1 0.0804827 0.165651 0.119048 0.00209485 0.00336351 0.00508756
13314 2 0.0481886 0.240951 0.0158954 0.0233477 0.0211066 0.0126246
13430 2 0.0981709 0.245618 0.0281624 0.0253533 -0.0198647 0.00423006
6618 2 0.163233 0.140822 0.108938 0.0544123 -0.00893688 -0.00931017
7960 1 0.24324 0.126047 0.0649347 -0.00141067 0.0145735 0.0039717
7961 2 0.225963 0.126838 0.0609782 0.0306842 0.0124934 0.00815966
2614 1 0.131388 0.221891 0.0801984 0.00566445 -0.000545777 -0.00291043
3361 1 0.248529 0.125977 0.00735322 -0.00309835 -0.000791482 0.00467721
2615 2 0.145614 0.21097 0.0747324 -0.0164363 -0.00493143 -0.0284333
422 2 0.213217 0.193114 0.115002 -0.00360039 0.00600028 0.00804965
423 2 0.229505 0.21762 0.117946 -0.0137365 -0.00192435 0.000593769
1123 1 0.198223 0.240629 0.0691607 -0.00103064 0.00037745 -0.00316482
1124 2 0.201691 0.227325 0.0810093 -0.0138714 0.0160164 0.0163341
2092 1 0.161314 0.186174 0.0471998 -0.000154898 0.000488302 0.00766575
2093 2 0.178372 0.181446 0.040824 -0.00805256 0.0216572 -0.0318206
2094 2 0.15038 0.181399 0.0337739 0.0348327 0.00201294 0.0195283
6235 1 0.248184 0.186857 0.0595654 0.0070554 0.00329934 -0.000339249
11008 1 0.183613 0.233431 0.0184734 -0.00033187 0.00284012 0.00319281
11009 2 0.184248 0.216131 0.0254238 -0.00698506 0.0196189 -0.0318281
12150 2 0.203166 0.156616 0.101982 -0.0257782 -0.010219 0.00941391
13207 1 0.204644 0.172237 0.0243796 -0.000971355 -0.00388435 -0.00131954
13208 2 0.221311 0.171179 0.0335733 0.0119225 -0.0257842 -0.00582349
13209 2 0.206705 0.164864 0.0064656 -0.00888526 -0.00829577 -0.0165397
14326 1 0.180629 0.14653 0.0778683 0.00474753 0.000634887 -0.00235199
14327 2 0.169466 0.158827 0.0699127 -0.0265431 -0.0125357 0.00628048
14328 2 0.178113 0.130816 0.0683947 0.00823555 0.0291933 0.0209052
421 1 0.211976 0.211261 0.112495 5.83847e-05 0.0022952 0.00213587
12148 1 0.218705 0.162831 0.109588 -0.00271579 -0.00397763 -0.00278047
12149 2 0.228094 0.173297 0.0964915 0.0165168 0.0115058 -0.00453949
6236 2 0.247058 0.202896 0.0502011 0.000396428 0.015092 -0.0255394
9712 1 0.133069 0.18019 0.00353909 -0.00127889 -0.00811488 0.00108568
11010 2 0.189611 0.24232 0.0335474 0.0173669 0.00428869 -0.00829966
3430 1 0.351287 0.151832 0.0122045 0.00171275 0.005536 0.00583114
3431 2 0.339731 0.137409 0.00951038 -0.0146468 -0.0185648 -0.00137247
11411 2 0.28472 0.160764 0.121699 0.0146574 0.00672316 0.0112302
7643 2 0.360095 0.248176 0.00588321 0.0123565 0.0229846 -0.0223087
1315 1 0.257167 0.235594 0.029372 0.000461876 0.00133907 0.00454926
2458 1 0.324573 0.1981 0.0205335 -0.00719901 0.00369477 -0.0063808
2459 2 0.317889 0.204479 0.00535028 0.0146852 0.00530368 0.0244672
2460 2 0.332373 0.181975 0.0168383 0.0136658 -0.0150941 0.0140114
3935 2 0.318267 0.232823 0.0835478 -0.0269518 -0.00956024 0.0104922
3936 2 0.331851 0.224358 0.107882 -0.00402807 0.00193987 -0.0135312
4247 2 0.267237 0.23738 0.101523 -0.00505806 -0.0172494 -0.0344124
6237 2 0.266041 0.18347 0.0603354 -0.00892819 0.0103327 -0.00665012
7586 2 0.368684 0.200975 0.0212576 -0.0116779 0.00338087 -0.0154535
8174 2 0.369904 0.198843 0.0898472 -0.0102319 0.0159514 0.0152697
8175 2 0.359599 0.169827 0.0853775 -0.0116833 0.00284067 0.0271421
10501 1 0.36045 0.142985 0.0597119 -0.000217212 0.00229945 0.00386972
10502 2 0.356991 0.148636 0.0412008 -0.000747802 -0.000221774 -0.00052839
11410 1 0.290058 0.177805 0.11547 0.00841944 0.00304826 -0.0108213
11412 2 0.292606 0.175532 0.0973117 -0.0253655 0.00918245 -0.0135624
11713 1 0.303744 0.166364 0.0658124 0.00456207 0.00363638 0.00714278
11714 2 0.316981 0.175727 0.0568093 0.00627478 0.00158477 0.0186068
11715 2 0.301853 0.151094 0.0569478 0.0130701 0.00514069 0.0341278
14308 1 0.302764 0.227249 0.0572175 0.00362131 -0.00427225 -0.00130037
14309 2 0.305605 0.214297 0.0439714 0.00285007 -0.0103803 0.00691567
14310 2 0.285531 0.233798 0.0527358 0.0091733 -0.00505792 -0.00301853
4246 1 0.260719 0.224828 0.113529 -0.00662135 0.00823149 0.00314124
4248 2 0.27027 0.208752 0.110628 -0.00866859 0.0219791 -0.0128853
8173 1 0.358642 0.185183 0.0964132 0.00624606 -0.00420843 -0.0024659
1316 2 0.257773 0.228694 0.0117607 -0.0228085 -0.0142974 0.00301497
3934 1 0.328365 0.239053 0.0983137 -0.00596985 -0.0003868 -0.00307285
4385 2 0.332394 0.243681 0.0399231 0.0122085 -0.0130055 -0.0111854
3362 2 0.257893 0.142401 0.00636898 -0.0143144 0.0112363 -0.0139164
3432 2 0.367569 0.149095 0.00371658 -0.0145477 0.00418124 0.00326299
4285 1 0.410645 0.145779 0.0855988 0.00542289 0.000701414 0.000528642
4286 2 0.420876 0.15998 0.0923927 -0.00202504 0.0111857 -0.0249436
4287 2 0.420893 0.140081 0.0709412 -0.0274975 -0.023414 0.0414021
8877 2 0.390328 0.138796 0.111505 0.00236019 -0.0402785 0.0306494
11308 1 0.468214 0.152077 0.0139188 -0.000140788 -0.00227467 0.00197731
10503 2 0.378236 0.141873 0.0617743 0.00767971 -0.000805675 -0.0120925
12028 1 0.447392 0.183163 0.102354 0.00491622 0.00132487 -0.00226108
1699 1 0.400437 0.233996 0.0875381 0.00668202 -0.00657351 -0.000887005
1700 2 0.406189 0.241723 0.0712943 -0.00251674 -0.00840314 -0.00192741
1701 2 0.414151 0.234798 0.100881 -0.00780599 0.0214128 0.00539572
3181 1 0.484272 0.170866 0.0646977 -0.00331663 0.00072059 -0.00246158
3182 2 0.485811 0.189085 0.0585708 -0.00759876 0.000472723 0.019336
3183 2 0.482374 0.159288 0.0502925 -0.0193743 0.029134 -0.0145626
6748 1 0.481222 0.214555 0.0401049 -0.000453035 -8.68734e-05 0.00348799
6749 2 0.473072 0.208611 0.0245739 -0.0191162 -0.0179657 -0.00516051
7585 1 0.383234 0.19671 0.010863 0.00666751 0.00361564 -0.00350369
8215 1 0.41976 0.231179 0.00121247 -0.00317862 -0.00543038 0.00704634
8216 2 0.416789 0.241513 0.0171989 -0.0143378 0.0383634 -0.0071899
8217 2 0.407286 0.216736 0.00408005 -0.00817825 0.0155884 -0.0155938
8699 2 0.45895 0.239858 0.0591642 -0.00166176 -0.00889884 -0.013429
12029 2 0.460195 0.184473 0.116123 0.0337897 -0.0201169 -0.00109085
12030 2 0.457892 0.179157 0.0865765 0.0179558 0.0285452 -0.0220376
14110 1 0.450387 0.24352 0.111491 0.000333663 -0.00338839 -0.00322954
14112 2 0.460331 0.231868 0.121165 0.0101258 -0.00450088 0.0255092
6750 2 0.497548 0.22295 0.035933 -0.0112245 0.00930481 -0.00385082
11309 2 0.45421 0.140809 0.0107418 -0.0281188 -0.0140526 -0.00407872
11310 2 0.465073 0.167435 0.00455859 0.0232185 0.00282339 -0.0172702
7308 2 0.496065 0.149871 0.0011736 0.0208756 0.0295988 0.007984
9807 2 0.0223419 0.0824851 0.134527 -0.00280555 0.0142875 0.00178116
5753 2 0.0844545 0.0285117 0.216942 -0.0043065 0.0266361 -0.0171835
5754 2 0.110412 0.0168519 0.21303 -0.0065613 0.00970765 -0.0142534
2235 2 0.111118 0.0196594 0.154877 0.0260422 -0.0131439 0.0105523
894 2 0.0676765 0.00764725 0.137506 0.00391861 0.00467444 -0.0199197
9921 2 0.00955972 0.013271 0.153855 -0.0381344 0.0084462 0.0217746
892 1 0.0770213 0.00772682 0.154271 0.00196365 -0.00444845 0.000545229
14846 2 0.0468628 0.081102 0.234096 0.0116806 0.00235753 -0.0102296
5752 1 0.102302 0.0327709 0.216154 -0.000651693 -0.00166873 0.00117919
334 1 0.107549 0.0715846 0.137006 -0.00595239 -0.000784065 -0.00629482
14845 1 0.0474114 0.0634819 0.233607 0.00090338 0.00347381 0.0039071
3323 2 0.0820462 0.113453 0.19361 -0.0146191 -0.00914087 0.00527233
4892 2 0.0793533 0.113157 0.236406 -0.000787773 0.00245394 -0.0276388
5446 1 0.0592331 0.080236 0.183289 -0.00207484 -0.000499294 -0.00168397
5447 2 0.0701904 0.0687336 0.173197 -0.00463719 0.00762328 0.0135982
5448 2 0.0539376 0.0698928 0.19783 0.00481101 0.0381442 -0.00064356
6493 1 0.0121486 0.0258433 0.213854 -0.0048983 0.00843364 -0.00145391
6494 2 0.0193593 0.0428263 0.21717 -0.0096356 0.00243204 -0.00570616
6495 2 0.00127807 0.026645 0.198178 -0.00959248 0.00528929 0.00448567
6899 2 0.0351221 0.118981 0.131924 -0.014256 0.00277262 0.000445713
7872 2 0.00447556 0.104861 0.238769 0.0349957 0.00668591 0.00752223
9919 1 0.0119877 0.0310094 0.158691 0.00129788 0.00433267 -0.00397053
9920 2 0.0163753 0.0403788 0.142823 0.00485664 0.0122177 4.57926e-05
12544 1 0.0239796 0.107812 0.159513 -0.00187246 -0.00304317 -0.000641888
12545 2 0.037013 0.0967408 0.167657 -0.012349 0.028484 -0.000603951
12546 2 0.0207892 0.120768 0.172072 -0.0101173 -0.00561803 -7.56855e-05
12561 2 0.0365497 0.00013516 0.199709 0.00317398 -0.0212022 0.00393868
335 2 0.117789 0.0578479 0.133436 0.00564736 0.0072038 -0.00280797
336 2 0.114473 0.0787664 0.153452 0.00329681 0.00570061 0.00337657
5576 2 0.120534 0.0665749 0.196724 -0.0266135 -0.00601684 0.00414085
6659 2 0.00544806 0.00496139 0.24647 -0.0121256 0.0148896 0.0215931
3620 2 0.111695 0.0535939 0.249373 -0.00338787 0.0140683 0.0043086
6617 2 0.166333 0.116382 0.128955 0.00140013 0.00154561 0.0382898
2234 2 0.141848 0.0194185 0.159993 -0.0116595 -0.00637632 0.0390186
1771 1 0.208724 0.0198031 0.137953 -0.00422912 0.00387323 -0.0050717
5780 2 0.183234 0.0157752 0.180972 0.0223769 -0.0110796 -0.00944502
5779 1 0.165457 0.0111315 0.182641 -0.000136551 -0.00460284 -0.000830798
2233 1 0.128223 0.0225844 0.146988 0.00178769 -0.00204198 0.00402755
15 2 0.240904 0.017498 0.220122 0.00744361 0.00374035 0.0142049
13 1 0.244192 0.019844 0.202374 -1.08149e-05 0.00369356 -0.00241824
36 2 0.21722 0.11138 0.236251 0.0187868 0.0259922 -0.0114174
1772 2 0.225589 0.0278074 0.136717 0.0114323 0.0051356 -0.01884
2680 1 0.160527 0.102717 0.222034 0.0029736 0.0030204 -0.00193646
2681 2 0.165867 0.0837359 0.221807 -0.0040169 0.0208036 0.00975972
2682 2 0.173144 0.111111 0.210552 0.00779589 -0.0226515 -0.00701812
3328 1 0.209573 0.110443 0.200081 -0.000817134 0.000613582 -0.000200474
3329 2 0.213202 0.123714 0.187986 0.00318656 -0.00705588 -0.0234137
3330 2 0.216458 0.0932024 0.194498 0.00357733 -0.00576826 -0.0143002
5575 1 0.127182 0.0792466 0.18433 -0.00731849 0.00247865 0.00233579
5577 2 0.138565 0.0904637 0.194495 0.0328133 0.0016632 0.00444849
8134 1 0.171899 0.053067 0.216453 -0.000331223 -0.00169583 0.00755106
8135 2 0.176458 0.0425219 0.230977 0.0014599 -0.00053003 0.001114
8136 2 0.165068 0.0418206 0.20391 -0.023809 -0.0129304 -0.0238
13810 1 0.173212 0.0875471 0.153613 -0.000845981 0.00253806 -0.00719204
13811 2 0.185256 0.0751424 0.159564 0.0108077 -0.0119382 -0.0150614
13812 2 0.15736 0.0868252 0.163247 -0.00406492 -0.0194801 -0.0191899
5071 1 0.226317 0.0641371 0.177972 -0.00733503 -0.0014829 0.00961257
5072 2 0.231954 0.0486675 0.187245 -0.00638873 -0.0155694 -0.0190176
5073 2 0.23383 0.0627268 0.161002 -0.00770861 -0.00540679 -0.00618225
1773 2 0.195963 0.0313864 0.130798 0.00848257 0.0261377 -0.0134903
1434 2 0.308203 0.0202428 0.147371 0.00351059 0.0121227 0.00651238
40 1 0.372794 0.0527753 0.125561 -0.00601226 0.00214803 -0.00107834
6668 2 0.293011 0.0298722 0.228343 -0.0171717 0.0188868 -0.0233221
14 2 0.262526 0.0193856 0.199652 0.0205216 -0.0236913 -0.0389126
1432 1 0.317536 0.0046957 0.150939 0.000820987 -0.00140708 0.00547285
11199 2 0.353372 0.00253377 0.201536 0.00914913 -0.00354882 0.0222116
11929 1 0.253701 0.0495092 0.133616 -0.00215437 0.00705968 0.00712451
11198 2 0.363885 0.0283561 0.188646 -0.00902754 -0.00726753 0.0083141
7082 2 0.260368 0.0735699 0.215895 0.00372667 0.0106729 0.0186471
1237 1 0.334864 0.0830553 0.174127 -0.000736054 -0.00404138 0.000585812
1238 2 0.351683 0.0905389 0.170542 -0.00188929 -0.00555173 -0.000495485
1239 2 0.330355 0.0904028 0.190145 0.00335384 0.027936 0.0142261
2279 2 0.26648 0.102144 0.17725 0.00807464 -0.0222454 0.0155242
2988 2 0.263944 0.114631 0.130269 -0.0047991 0.0114236 -0.0129659
5923 1 0.317432 0.12485 0.147721 0.000744931 -0.0068145 0.00317819
5924 2 0.301046 0.122419 0.156322 0.000780892 -0.00798133 -0.00114232
5925 2 0.324899 0.107818 0.14947 -0.0122088 -0.0267791 -0.00821698
6667 1 0.298712 0.0207456 0.213245 -0.00630609 -0.000880169 -0.00015487
6669 2 0.308584 0.005676 0.218325 -0.0125469 0.00730801 0.0150771
7477 1 0.323512 0.11297 0.213663 -0.00647918 -0.00273536 -0.00409226
7478 2 0.325515 0.122724 0.230228 0.00221292 0.0228044 -0.0130992
7479 2 0.306299 0.104024 0.215977 0.0221601 0.0167729 0.0183162
11197 1 0.35704 0.0108202 0.18551 0.00289489 -0.000975754 0.000382419
11930 2 0.267882 0.0479551 0.145255 0.0274374 0.0167531 0.0223414
12451 1 0.292372 0.0515268 0.167167 -0.0016978 0.00283136 -0.00979993
12452 2 0.306299 0.0636012 0.163523 -0.000385279 -0.00391494 -0.0171551
12453 2 0.29627 0.0417893 0.182599 0.0159155 0.0175947 -0.0146892
7081 1 0.269334 0.0897474 0.216987 -0.000600026 -0.0057689 -0.000795962
7083 2 0.258633 0.102135 0.226164 -0.00192412 0.0130476 -0.0098823
1433 2 0.3298 0.00921301 0.164594 0.0165042 9.77787e-05 -0.0162694
12100 1 0.367754 0.094874 0.236848 -0.00491512 -0.00499095 -0.00219805
12102 2 0.359111 0.104277 0.223295 0.0232418 0.00211032 -0.00651795
2278 1 0.268354 0.118397 0.167345 -0.0018931 -0.00478227 -0.000662368
5289 2 0.49205 0.0720525 0.163908 0.0161579 -0.00631344 0.0147657
7629 2 0.474031 0.0524319 0.140703 0.00379119 -0.00899287 -0.0105848
7628 2 0.448537 0.0668306 0.131021 0.0125247 0.0040281 0.018234
12912 2 0.40092 0.00611859 0.162276 0.00454666 -0.00227846 0.0230588
10961 2 0.462419 0.00743796 0.225142 0.00382012 0.00694677 -0.0018751
12910 1 0.400552 0.0064878 0.143654 0.000583214 -0.00177269 -0.00148081
2290 1 0.484039 0.0131909 0.201127 0.00625099 0.00518813 0.0045445
7627 1 0.454647 0.0537826 0.142883 0.00735615 -0.00213838 -0.00148017
10769 2 0.431559 0.124384 0.169359 0.00879661 0.0265151 -0.00291223
2291 2 0.497456 0.0238063 0.206887 0.000399118 -0.0213479 -0.00081516
4915 1 0.388038 0.0900823 0.155445 -0.000158574 -0.00376963 -0.00620959
4916 2 0.386035 0.103307 0.141764 0.00338904 0.00929595 -0.0167396
4917 2 0.385236 0.0730128 0.147897 0.00709353 -0.00611996 -0.00710646
5287 1 0.486909 0.0828661 0.178024 -0.00888278 0.0040288 0.00343681
5288 2 0.47384 0.0950211 0.170562 -0.0023392 -0.0192333 0.0185736
9973 1 0.42185 0.0947804 0.224394 0.000511102 -0.000495075 0.000399216
9974 2 0.424123 0.0966657 0.206237 -0.00459757 0.00298625 0.0192569
9975 2 0.433995 0.0822869 0.229579 -0.00874023 -0.0195829 0.0234341
10768 1 0.432998 0.106234 0.174153 -0.00515672 0.00345908 -0.00781665
10770 2 0.416634 0.0987715 0.167871 0.0085909 -0.0172737 -0.00285204
12101 2 0.386339 0.0949016 0.233654 -0.0106024 -0.00173859 -0.0123745
12712 1 0.401338 0.0296169 0.227455 0.00221149 0.00196322 -0.00668206
12713 2 0.406398 0.0375075 0.211396 -0.00579413 0.0142732 -0.00531096
12714 2 0.414434 0.0174508 0.233124 0.0150332 0.0146022 -0.0109581
12911 2 0.401606 0.0244554 0.138967 0.00994063 -0.0175947 -0.0154643
13369 1 0.46275 0.060929 0.221088 0.00370681 -0.00100402 -0.00169766
13370 2 0.456586 0.0473704 0.211569 0.00824437 -0.0396134 -0.00358255
13371 2 0.474271 0.0701514 0.209291 -0.0212801 -0.00921529 -0.0211332
14143 1 0.419594 0.0454785 0.179669 0.00694706 -0.000779292 0.00388729
14144 2 0.409127 0.0598761 0.173995 -0.0286439 0.0190499 -0.0199498
14145 2 0.434657 0.0441722 0.16767 -0.00498535 0.0134714 -0.0253446
2292 2 0.488489 0.00647022 0.184682 -0.0179022 -7.53523e-05 0.00130073
10960 1 0.448978 0.00760432 0.238073 -0.00166743 -0.00720864 0.00495029
2063 2 0.0215318 0.226992 0.125649 -0.00471992 0.026512 -0.0311404
8197 1 0.0565946 0.24794 0.230468 -0.00334648 0.00431489 0.000202861
2062 1 0.0243996 0.213784 0.139019 0.00540489 0.00282694 0.00321297
2064 2 0.00782996 0.205692 0.141892 -0.0198267 -0.01472 -0.0139377
13838 2 0.116347 0.239758 0.136125 -0.000251972 -0.0167414 -0.00736692
4369 1 0.111792 0.139259 0.146151 0.00428394 0.0044029 -0.00326617
4371 2 0.114034 0.13321 0.163079 0.0118593 0.00529547 0.0345724
13894 1 0.0190566 0.145179 0.196983 -0.00923832 0.00401463 0.00205847
13895 2 0.0146921 0.142211 0.21483 0.0173895 -0.00467511 -0.0177504
3322 1 0.09153 0.126007 0.203027 0.00493572 -0.000443316 0.00471
1786 1 0.0752722 0.204503 0.15438 0.00226727 -0.000175716 0.00291261
1787 2 0.0739661 0.19327 0.139879 0.00768243 0.0208355 -0.0273108
11583 2 0.0192593 0.229825 0.176443 -0.00338364 0.00798937 0.0150393
12122 2 0.0927373 0.157807 0.130599 0.0164713 -0.0263857 0.0182641
1788 2 0.0618805 0.218237 0.151264 -0.000371642 -0.0203877 -0.00616953
3324 2 0.0836054 0.143229 0.201466 -0.00252245 0.00307297 0.0187431
6826 1 0.0632424 0.171554 0.194395 0.00238778 -0.000274471 0.00455516
6827 2 0.055915 0.183621 0.206505 0.0124876 -0.00455691 -0.0104717
6828 2 0.0641299 0.181184 0.177926 -0.0145709 -0.018127 -0.0110515
7618 1 0.0272279 0.196604 0.222276 0.00270576 0.000329426 -0.00379529
7619 2 0.00982462 0.188665 0.225714 -0.0168939 0.00432391 0.00538289
7620 2 0.035974 0.201226 0.237796 -0.0134503 0.0101644 0.000291272
11581 1 0.0244272 0.237717 0.192093 -0.00302031 -0.00495217 0.00305106
11582 2 0.0245981 0.224451 0.205728 0.00837252 0.0158157 0.0224506
13837 1 0.120887 0.222608 0.143747 0.00475341 0.00615285 0.000161902
13839 2 0.104857 0.214378 0.14615 0.00203671 -0.00305407 -0.0240037
13896 2 0.03624 0.151148 0.195314 0.00262704 0.00772916 0.0170201
11859 2 0.108275 0.238581 0.235089 0.00796007 0.0115248 -0.00481951
8198 2 0.0484739 0.249402 0.213756 -0.0112939 -0.0157677 0.00232471
4370 2 0.128773 0.141408 0.138878 0.0285527 -0.00298925 -0.0280396
6616 1 0.16147 0.134714 0.127158 -0.00103985 -0.00214268 0.0104895
11479 1 0.145102 0.2039 0.189985 0.00623362 -0.00069883 0.00636216
11480 2 0.134827 0.209674 0.174773 0.0175306 0.0101603 0.0171291
11481 2 0.152804 0.219642 0.196509 -0.00584319 -0.00189885 -0.00404999
11857 1 0.126384 0.241451 0.231116 -0.00420188 -0.00156615 0.0048276
14518 1 0.155917 0.156478 0.176213 -0.00593533 0.000915691 0.00428448
14519 2 0.162197 0.152702 0.158131 0.00154155 -0.0286985 -0.0162948
14520 2 0.151864 0.175078 0.176611 -0.0459352 -0.0126563 -0.0154857
14869 1 0.132389 0.167201 0.22869 0.00213963 -0.00567305 0.00038299
14870 2 0.125275 0.150803 0.222217 -0.00114911 0.0123666 0.0198455
14871 2 0.138175 0.176792 0.213653 0.00470022 0.00398334 -0.0199507
4959 2 0.216643 0.153854 0.142517 -0.0253525 -0.0038847 -0.00297062
4280 2 0.158852 0.160265 0.244497 0.00766314 -0.00502675 -0.00109383
4281 2 0.189788 0.161074 0.23886 -0.0168207 0.00338374 -0.00281376
7597 1 0.222305 0.21687 0.214901 0.00199444 0.00420822 -0.00279485
7598 2 0.210991 0.203135 0.213114 -0.0176193 0.00644857 0.0103466
7599 2 0.213701 0.233173 0.210637 0.00132331 0.0296017 -0.0258324
8191 1 0.173791 0.245652 0.143815 0.00241792 -0.00590151 -0.00299586
8192 2 0.184954 0.234706 0.133145 0.0055381 0.0196311 -0.0166685
8193 2 0.157352 0.236752 0.145091 -0.0132651 0.0069913 0.00936633
9562 1 0.199157 0.169033 0.202678 0.00194226 0.00291967 0.00169504
9563 2 0.212823 0.165876 0.18908 -0.0227115 -0.01345 -0.0231129
9564 2 0.183644 0.162269 0.193284 -0.0106922 -0.0219998 -0.00111914
10929 2 0.24509 0.219029 0.190403 -0.0152679 -0.00547891 0.0157536
9393 2 0.235044 0.211619 0.243862 0.0222727 -0.0281674 -0.00523024
4957 1 0.222654 0.149258 0.159728 0.000363813 -0.000835085 0.00128167
4958 2 0.238582 0.140335 0.157102 -0.00774905 0.00811743 0.0322275
13350 2 0.246753 0.145203 0.24437 -0.021428 0.0226034 0.0131164
11501 2 0.151252 0.219403 0.248161 0.014735 -0.0115107 -0.0200079
13348 1 0.262626 0.154636 0.244378 0.00518361 -8.07046e-05 0.00164643
12432 2 0.30403 0.232875 0.237882 -0.0120766 0.0200069 -0.00556998
12590 2 0.315991 0.175005 0.244485 -0.0108575 -0.00953883 -0.01637
3205 1 0.357135 0.15211 0.195012 -0.00162521 0.00664097 0.00093812
3207 2 0.341996 0.141996 0.197968 -0.0242124 0.00548489 -0.0223957
12431 2 0.282221 0.216256 0.247513 -0.00611715 -0.0326721 0.00261337
10927 1 0.25862 0.217955 0.177972 0.000954638 0.00118952 0.00994347
10928 2 0.252788 0.229148 0.164707 -0.0206426 -0.00423666 -0.0373554
3206 2 0.350249 0.168851 0.189682 -0.0193091 0.0119204 0.0117168
8876 2 0.364146 0.140846 0.12785 -0.00427148 -0.00600111 -0.023348