ITEM: TIMESTEP
0
ITEM: NUMBER OF ATOMS
15000
ITEM: BOX BOUNDS pp pp pp
0.0000000000000000e+00 5.0000000000000000e+01
0.0000000000000000e+00 5.0000000000000000e+01
0.0000000000000000e+00 5.0000000000000000e+01
ITEM: ATOMS id type xs ys zs vx vy vz
1849 1 0.0637723 0.0150041 0.0717757 -0.00280742 0.00302294 0.00722042
1850 2 0.0695985 0.0290664 0.084247 -0.0312271 -0.00140873 -0.0139576
1851 2 0.0767027 0.0150008 0.0568814 -0.00134148 0.00336756 -0.00803702
2929 1 0.0885515 0.103683 0.0808427 0.00583399 0.000111755 0.00198177
2930 2 0.0719221 0.112654 0.0752345 0.0192402 0.00815604 -0.000938699
3193 1 0.00869947 0.057788 0.0558242 -0.0031198 0.00298474 7.93506e-05
3194 2 0.0249287 0.0600556 0.0449788 0.0501089 -0.0117788 -0.000182801
3259 1 0.0952581 0.0181944 0.028499 0.00159693 -0.00100102 0.000929495
3260 2 0.107719 0.00363462 0.0243164 -0.00465805 -0.00072264 0.0130366
3261 2 0.0878001 0.0240246 0.0114751 0.0147686 -1.73611e-05 0.0259971
5794 1 0.0795378 0.0556748 0.103239 0.0022605 0.00133249 -0.00329848
5795 2 0.0827241 0.072641 0.0938214 0.000340219 -0.022327 0.0030158
6198 2 0.123418 0.0725167 0.00673896 0.0248046 0.0181281 -0.0188949
3195 2 0.0147298 0.0551933 0.0743536 -0.0132877 0.00563479 0.010686
7888 1 0.01983 0.116239 0.0160815 0.0013708 -0.00139771 0.00292419
7889 2 0.0283724 0.118025 0.0335649 0.00787368 -0.00939959 0.0145371
9805 1 0.0255263 0.0603213 0.108058 -0.000546574 0.00348598 -0.000667231
9806 2 0.0448074 0.0565045 0.108162 0.00764357 -0.0133703 2.56642e-05
9807 2 0.0236588 0.0795796 0.110365 0.0370168 0.0179199 -0.0280889
11845 1 0.0576536 0.0668483 0.031772 0.00251856 -0.00227636 -0.00415227
11846 2 0.0642057 0.084916 0.0279307 -0.00226469 0.00216195 -0.0263507
11847 2 0.0722233 0.0570156 0.0399409 -0.016103 0.00519644 0.0298137
12931 1 0.12237 0.0900761 0.037941 0.00722629 -0.00418647 -0.0044101
12933 2 0.108111 0.100513 0.0292168 -0.0232544 0.0299237 -0.0183445
12932 2 0.117186 0.089652 0.0567572 -0.00969548 0.00462711 0.0109849
2931 2 0.095386 0.113162 0.0964097 -0.0131842 -0.00212447 -0.0166766
10862 2 0.0236598 0.120152 0.0770419 0.00340354 0.00216661 -0.00160931
8494 1 0.0817858 0.114231 0.0139037 -0.011143 0.00791156 0.00101056
7143 2 0.0358771 0.0036494 0.0545219 -0.00379986 0.00526951 -0.0159507
5796 2 0.093881 0.0544559 0.116601 0.00497168 0.00440085 0.00717437
6898 1 0.0212602 0.114243 0.123909 -0.00140994 0.00103006 -0.00185363
7142 2 0.0184273 0.00537781 0.0281304 -0.0135771 0.0231161 0.0173147
4 1 0.158209 0.0344829 0.0298436 -0.00350996 -0.00353034 -0.000266494
5 2 0.167208 0.0235299 0.0162759 0.0185048 -0.0135434 -0.0053478
6 2 0.143356 0.0429485 0.0205211 0.0126926 0.00123373 -0.0266583
1796 2 0.235886 0.061061 0.0871923 -0.0142248 -0.00800613 -0.0265421
3363 2 0.232024 0.0987002 0.0106213 0.0382087 -0.0224488 0.00751301
3754 1 0.175722 0.0624114 0.0734066 0.00373649 -0.00312185 -0.00138817
3755 2 0.190877 0.0730913 0.0678366 0.019439 -0.00925172 -0.0119198
3756 2 0.168494 0.054128 0.0571492 0.0066496 0.00464899 -0.0204115
6376 1 0.176388 0.0303975 0.115963 -0.000964052 0.00678076 -0.00584355
6377 2 0.176295 0.0439472 0.101592 -0.00365198 -0.00552737 0.00974374
6618 2 0.166239 0.112932 0.119985 -0.00328144 0.00682232 -0.00645175
7960 1 0.222432 0.0922775 0.103285 0.000766372 0.00650624 0.000504163
7961 2 0.22012 0.111627 0.104222 -0.0167581 -0.00707706 0.0159331
7962 2 0.237625 0.0880035 0.114959 -0.0134767 0.0149126 -0.00815672
8656 1 0.171028 0.114353 0.0379468 -7.07921e-05 0.00103277 -0.00109716
8657 2 0.185254 0.100949 0.0360408 -0.00580027 -0.0111652 0.000540444
8658 2 0.153907 0.104676 0.0375251 0.00429148 0.0144504 -0.000258556
10376 2 0.168926 0.0083607 0.0886451 -0.00184895 -0.00479772 0.00132996
10377 2 0.161746 0.0128521 0.0583221 -0.00702868 0.0207618 -0.00808685
11029 1 0.209055 0.0770125 0.0282324 0.00634697 -0.00374578 -0.00551349
11030 2 0.200834 0.0702574 0.0115626 -0.0015321 -0.00697283 -0.00534742
11031 2 0.225663 0.0667046 0.0304935 0.0318063 -0.00832306 -0.00125935
6617 2 0.19002 0.0934625 0.123957 -0.00454657 -0.0128216 0.0287468
6020 2 0.174973 0.12328 0.00261357 0.0122694 -0.0123047 -0.00778843
10147 1 0.280542 0.00694626 0.0955476 0.00668857 -0.00873783 -0.000837503
1795 1 0.251048 0.0497876 0.0821894 0.00209889 -0.00380693 0.00220659
1797 2 0.251381 0.0485252 0.0625585 0.00627392 -0.0184399 -0.00315955
3430 1 0.329673 0.119579 0.0341884 0.00710515 0.00407228 0.000781633
3431 2 0.31293 0.112146 0.0273684 -0.0245538 -0.00269673 -0.0140635
3432 2 0.343387 0.112799 0.0217745 0.0100714 -0.0121149 0.00382138
10148 2 0.285524 0.0015728 0.0772379 0.000439955 -0.00847352 -0.0145169
3580 1 0.329621 0.0341457 0.09492 -0.00100208 -0.00701617 -0.000173405
3581 2 0.326285 0.0533808 0.0953881 -0.021219 -0.00590339 0.00555265
3582 2 0.312398 0.0250558 0.0963317 -2.47506e-05 -0.0154861 0.0253564
3830 2 0.347405 0.0156402 0.0662555 0.005682 0.000361485 -0.0134732
6022 1 0.295324 0.0899321 0.00316539 -0.00286384 -0.00483944 -0.000674478
9043 1 0.257419 0.0542536 0.0287311 0.00319969 -0.000594204 -0.0024089
9044 2 0.258155 0.0438656 0.0120168 0.0104746 -0.011134 0.00387219
9045 2 0.272817 0.0661452 0.0277486 0.00730723 0.00206861 -0.00464779
10149 2 0.268421 0.022324 0.0931566 0.00272453 0.0328641 -0.015766
10795 1 0.324567 0.0505264 0.0296887 0.00771453 -0.000483888 -0.0100613
10796 2 0.342359 0.05599 0.0352115 -0.00707801 -0.00350929 -0.00999694
10797 2 0.316729 0.0652512 0.0195261 0.00254058 0.00679999 0.0203244
11155 1 0.295299 0.00609355 0.0424236 0.00363352 -0.0061197 -0.000989593
11157 2 0.305547 0.0220758 0.0372928 -0.0117912 0.0265295 0.0105709
11411 2 0.279777 0.120607 0.119902 -0.00217488 -0.00897529 -0.0296343
12904 1 0.33082 0.0895364 0.0965598 0.000556399 0.00323956 -0.00613428
12905 2 0.326916 0.0905296 0.115926 0.00110901 -0.0198825 0.0309277
12906 2 0.340347 0.106171 0.0922272 -0.00662413 0.0201487 0.0131036
14098 1 0.282117 0.0973474 0.0726233 0.0102504 -0.00112352 0.000443092
14099 2 0.300401 0.0934029 0.0784444 -0.00662293 0.0112181 -0.0026407
14100 2 0.271376 0.0817378 0.0771768 0.0090175 -0.00710118 0.0287247
14668 1 0.373167 0.0763735 0.0592837 0.00204962 0.00603265 -0.00166534
14669 2 0.357236 0.0770119 0.0704046 -0.0169795 0.00781099 0.00923467
42 2 0.364138 0.0387119 0.103543 -0.00322988 -0.00898909 -0.00912614
3829 1 0.364156 0.0115718 0.0570878 -0.0006543 -0.00216754 0.00114842
6023 2 0.278091 0.0990537 0.0010425 0.0253558 -0.0162513 0.00286922
3831 2 0.359919 0.00549959 0.039003 0.0188939 -0.00296479 0.0190203
7091 2 0.394694 0.0173204 0.0648047 -0.00243318 -0.0109366 -0.000563691
14670 2 0.387472 0.0840402 0.0701687 0.023551 -0.00398901 0.0245455
40 1 0.38222 0.0419458 0.110472 -0.00136438 -5.03553e-05 0.00146398
41 2 0.394746 0.0365697 0.0964232 0.0273997 0.011358 0.00234916
2707 1 0.397753 0.064467 0.0114021 -0.00570371 0.00202297 0.00125746
2708 2 0.408198 0.0479385 0.0120988 -0.0182593 0.0246731 -0.0149315
2709 2 0.391525 0.0676579 0.0297927 0.0168083 0.000534993 -0.0183502
4285 1 0.413642 0.102607 0.0901467 0.00194694 0.000635094 -0.0048682
4286 2 0.425574 0.114482 0.1002 0.0029244 0.00810706 -0.00534358
4287 2 0.422375 0.100314 0.0725109 -0.0222874 -0.0214671 0.00532749
4825 1 0.478231 0.0433501 0.0141485 -0.00252761 0.00177748 -0.00454151
4826 2 0.479547 0.0403072 0.0336114 -0.00748992 0.0204759 0.0242713
5158 1 0.440467 0.0953925 0.0452827 0.00687134 0.000940727 -0.00109148
5159 2 0.44144 0.0994411 0.0263377 -0.00659775 -0.00361466 0.00864242
5160 2 0.458707 0.0964475 0.0526222 -0.00581868 0.00136995 0.000963131
6697 1 0.475044 0.0312711 0.0663042 -0.0081116 0.00193059 0.00257335
6698 2 0.473296 0.0120296 0.0701894 1.12623e-05 -0.0468967 -0.0156016
6699 2 0.463061 0.0405056 0.0788447 0.000201191 -0.0265321 0.0431893
7090 1 0.413713 0.0186339 0.0703309 0.00226554 0.00175617 1.32124e-05
7092 2 0.419161 0.000130117 0.0737843 -0.000276796 0.00612663 -0.0304292
7135 1 0.429505 0.0204755 0.0181619 -0.00142708 0.00315068 0.00288231
7136 2 0.447897 0.0272108 0.0162606 0.0195818 -0.0103028 0.0161781
7137 2 0.42559 0.0211234 0.0374415 -0.0161669 0.0169669 0.0301716
8877 2 0.39046 0.121209 0.117259 -0.00146772 -0.0124358 -0.00383702
11833 1 0.449926 0.0586263 0.106927 0.00131985 0.00165696 -0.00502284
11834 2 0.435052 0.070246 0.102176 0.00952989 0.00425233 0.00484577
11835 2 0.464545 0.0700512 0.112759 -0.000202974 0.0148136 -0.0203231
13522 1 0.48735 0.100931 0.0725015 0.00373456 0.0034771 0.000612369
13524 2 0.495246 0.118317 0.0696757 -0.00647275 0.0178773 0.0242655
4827 2 0.482391 0.0622569 0.0110226 -0.0227125 -0.00733034 -0.00242116
13523 2 0.494385 0.0942148 0.0895093 0.0136306 0.0140373 -0.0300161
7628 2 0.443215 0.0256118 0.12207 0.00272675 0.0116907 0.0108571
6951 2 0.375488 0.0872381 0.00252473 0.00634989 0.0151003 -0.00957299
8496 2 0.0813607 0.13266 0.0208277 0.0050597 -0.011152 0.0124481
10030 1 0.0154996 0.242312 0.0290649 -0.00385817 0.00190608 -0.0040549
2614 1 0.115191 0.220567 0.0706142 -0.00578946 -0.00256583 -0.00226326
2616 2 0.0988923 0.212041 0.0775204 0.0122708 -0.019098 0.00144832
3967 1 0.0811645 0.164739 0.0347434 -0.00277772 0.00305307 0.00034667
3968 2 0.0843886 0.170978 0.0530614 0.00444582 0.00987651 -0.0106311
3969 2 0.0619811 0.168028 0.0321907 0.0237892 -0.0089102 0.0216872
6622 1 0.0280779 0.171955 0.0415562 0.00387456 -0.000394721 0.00131755
6623 2 0.016923 0.173245 0.0253888 -0.0199629 -0.000717284 0.0129869
6624 2 0.0248922 0.188116 0.0522363 -0.0130658 -0.00489711 -0.00822542
7890 2 0.0156081 0.134378 0.00978064 -0.0022509 0.00844226 0.00587167
9714 2 0.108741 0.178143 0.019347 0.0168983 -0.0158903 -0.00896873
10483 1 0.0735556 0.188262 0.0840011 -0.00535178 0.000955938 0.0026941
10484 2 0.0725583 0.177481 0.100163 -0.00137637 0.0249773 0.00254616
10485 2 0.0568753 0.198662 0.0829958 0.00554669 0.00647306 0.0312598
10861 1 0.039827 0.125937 0.0677746 7.87228e-05 0.00282841 0.000853104
10863 2 0.0363251 0.144047 0.060944 -0.0262317 -0.00507035 -0.0123243
11527 1 0.0263435 0.215274 0.0747745 7.12771e-06 -0.00494077 -0.00524772
11528 2 0.0265716 0.227233 0.0592183 -0.0246329 0.00755913 -0.0410463
11529 2 0.0121995 0.222327 0.0863925 -0.0147235 3.87089e-06 -0.0139207
12123 2 0.04613 0.139035 0.123198 -0.00200927 0.000980605 -0.00483255
9712 1 0.124953 0.187417 0.0130366 0.00532781 0.000563225 0.004157
9713 2 0.118753 0.203349 0.00350305 -0.00296036 -0.0284076 0.000993178
10031 2 0.000311607 0.23025 0.0260403 -0.00271608 0.0103764 -0.0120842
13431 2 0.112299 0.249402 0.0498252 -0.00360682 -0.0077917 0.0155282
7179 2 0.156627 0.184808 0.000625575 0.000589937 0.00423172 0.00403957
3362 2 0.236357 0.12842 0.00256036 -0.00594981 0.00581097 -0.00714583
2615 2 0.128002 0.205751 0.0685754 -0.00863188 -0.0134843 -0.0186321
79 1 0.218024 0.157714 0.00867987 -0.00101135 -0.0089744 0.00914805
80 2 0.201032 0.165871 0.00282949 0.00727243 0.0214512 0.0128626
81 2 0.231588 0.171185 0.00453325 -0.0155551 0.000362052 0.000896551
422 2 0.154714 0.177545 0.121448 -0.0128147 0.0363003 -8.98376e-05
423 2 0.185237 0.170807 0.118514 0.00991718 -0.00309446 0.0273955
1123 1 0.193571 0.224343 0.0884919 0.000881999 0.000978067 0.00174018
1124 2 0.185155 0.208907 0.0971399 -0.0178996 -0.00526134 0.0143934
1125 2 0.206672 0.230894 0.101432 -0.00428047 0.000855718 -0.00424919
2092 1 0.147996 0.178853 0.0615194 -0.00262676 0.00351113 -0.00358016
2093 2 0.167482 0.175944 0.0603502 -0.0175056 0.00318817 0.000991253
2094 2 0.141361 0.179998 0.043104 -0.00701419 0.0216698 0.0153954
3734 2 0.167917 0.247291 0.0849237 0.00466077 -0.00263569 0.0101376
6235 1 0.244611 0.184282 0.0870403 0.0048746 -0.00395967 0.000537285
3735 2 0.137376 0.2446 0.0787605 0.00144277 -0.0226348 -0.00700105
11008 1 0.187895 0.226329 0.0318624 0.00378386 0.00675854 0.0043136
11009 2 0.186889 0.210477 0.0205369 -0.0258707 0.00814866 0.0151561
11010 2 0.19085 0.220262 0.0502487 0.01566 0.0296289 -0.00933179
12150 2 0.199158 0.144182 0.0977867 -0.00267411 0.0075419 0.00824442
13207 1 0.200766 0.171133 0.0582977 0.000495599 0.00458521 0.00251816
13208 2 0.216187 0.179044 0.0675459 -0.0115535 0.0050737 -0.00833434
13209 2 0.207652 0.162509 0.0421058 -0.00531898 0.00818117 0.0115124
13832 2 0.166657 0.245114 0.0093565 -0.0133778 -0.00850791 -0.00940162
14326 1 0.162529 0.132657 0.0891431 -0.00203 -0.00783142 0.00328717
14327 2 0.151206 0.148208 0.0857576 -0.013592 -0.00891149 0.0131314
14328 2 0.16634 0.125151 0.0714236 -0.0049511 0.00492399 -0.0188969
421 1 0.172855 0.185584 0.121312 -0.00385133 0.00310094 -0.00125704
5075 2 0.24376 0.238177 0.121724 0.0130275 -0.00917085 0.00724887
12148 1 0.213353 0.147128 0.110983 0.00229665 -0.000871822 -0.000814576
12149 2 0.225441 0.160825 0.103512 -0.0270185 0.0178448 0.00887378
6236 2 0.253188 0.201106 0.0924171 0.000189975 0.0273007 0.00180457
1315 1 0.258796 0.225059 0.0382331 0.00317307 0.00465878 0.00410193
1316 2 0.256356 0.243499 0.0325018 -0.00988385 -0.00708482 0.00738841
1317 2 0.251971 0.214223 0.0235163 0.00433399 0.00338915 0.036235
2458 1 0.34056 0.173297 0.0302879 -0.0035682 -0.000183045 -0.00395269
2459 2 0.326884 0.18554 0.0367493 -0.00191153 -0.00515338 0.00577583
2460 2 0.332359 0.155613 0.0287537 0.0139445 0.0306187 -0.0082143
3934 1 0.335336 0.222444 0.103166 -0.00324185 -0.00113632 -0.000716988
3935 2 0.32117 0.21862 0.0903697 -0.01769 0.0355717 -0.00765844
3936 2 0.351481 0.213896 0.0959979 0.00456701 -0.0196348 -0.0169473
4247 2 0.283955 0.242544 0.11127 0.00341096 0.00779532 0.0241904
4384 1 0.348706 0.234784 0.0464627 -0.000612101 0.00155149 -0.00621442
4385 2 0.333487 0.222848 0.049087 -0.00816093 0.0248112 -0.0215433
6237 2 0.257978 0.173904 0.0771528 -0.00676984 0.0058927 0.00232968
7586 2 0.372899 0.170602 0.0378248 -0.00887836 0.0189821 0.0132621
7643 2 0.359056 0.229411 0.0125255 -0.00666216 -0.0197999 -0.0166424
8174 2 0.360564 0.178862 0.119256 0.00200048 -0.00486587 0.00285988
8175 2 0.346928 0.153722 0.107124 0.00312293 -0.0298513 -0.00153459
10501 1 0.355278 0.135003 0.078683 -0.00130123 -0.000766674 0.00420744
10502 2 0.344784 0.130155 0.0626692 -0.011121 0.022942 0.00682082
10503 2 0.371227 0.143869 0.0718337 0.0132155 0.0206383 -0.04642
11410 1 0.2774 0.139586 0.116851 0.00159955 0.00489916 -0.00507295
11412 2 0.278313 0.142422 0.09762 -0.00146254 -0.0114113 -0.0111156
11713 1 0.278991 0.150351 0.0610574 -0.00126454 -0.00774304 0.00309213
11714 2 0.280496 0.15308 0.0415242 0.0244645 -0.00483284 -0.0199845
11715 2 0.27971 0.130751 0.0632726 0.0055261 0.00620869 0.0219202
14308 1 0.303732 0.20316 0.059311 -0.0068391 0.00116195 -0.00231239
14309 2 0.296921 0.185494 0.0638638 -0.0161477 0.0273299 0.00291338
14310 2 0.288248 0.213326 0.0523648 -0.0219927 0.0128591 0.0133766
266 2 0.305743 0.225721 0.00106519 -0.0133378 -0.0151548 0.00972548
12622 1 0.285143 0.157534 0.00835415 -0.0015429 0.00156359 -0.00139781
12623 2 0.294705 0.173963 0.00364354 0.00283062 0.0393802 -0.00425328
4246 1 0.27333 0.226039 0.110307 -0.00259107 0.000713599 0.00394388
4248 2 0.283955 0.212195 0.11932 -0.00559741 0.0091985 -0.0194637
8173 1 0.348172 0.164386 0.123558 -0.00222756 -0.00653127 -0.00136455
12028 1 0.449827 0.136581 0.113441 -0.00155745 -0.00498896 0.00252377
1699 1 0.380826 0.195691 0.0901187 0.00282412 0.005294 0.00176048
1700 2 0.387666 0.186549 0.0741934 0.000838171 0.0197409 -0.0185269
1701 2 0.395105 0.20736 0.0967879 -0.0234758 0.00849861 -0.00323394
3181 1 0.453628 0.156661 0.0645704 0.00526742 0.00645119 -0.00200158
3182 2 0.459882 0.175006 0.0621693 -0.0150302 -0.00344616 0.00728374
3183 2 0.451922 0.149546 0.0463825 -0.0117371 0.0119727 -0.0022596
5170 1 0.493342 0.204946 0.103416 0.00302955 0.00554372 -0.000650426
5172 2 0.482304 0.204432 0.0875221 -0.00656955 0.00598677 -0.00172533
6748 1 0.472986 0.205587 0.0499785 0.00527569 0.00851541 0.000881665
6749 2 0.467131 0.201807 0.0316276 0.0079605 -0.0154733 0.0145857
6750 2 0.491669 0.211762 0.0478795 0.00832193 0.0101385 -0.0246954
7585 1 0.391167 0.166496 0.0444001 0.00133207 0.0025103 -0.00135208
7587 2 0.398705 0.154227 0.0313718 -0.00581443 -0.0319942 0.00505029
8215 1 0.415214 0.209053 0.0179818 0.00394891 0.00233395 -0.00100835
8216 2 0.414476 0.224302 0.0301868 0.0171361 0.00430324 0.0220675
8217 2 0.409 0.193625 0.0282466 0.00253071 -0.000550824 -0.0143455
8699 2 0.459671 0.234442 0.063239 0.0296224 -0.00973388 0.0087502
11308 1 0.453221 0.150132 0.0101433 0.0061494 -0.00221961 0.00118156
11310 2 0.456792 0.166976 0.000830105 -0.02093 0.0246599 -0.0200172
11654 2 0.382725 0.237936 0.0553842 -0.00362836 -0.0190097 -0.0150948
12029 2 0.468925 0.137446 0.118539 0.00357737 0.0153645 -0.0367445
12030 2 0.449645 0.143788 0.0949514 0.00286708 -0.000423629 0.0152081
14110 1 0.413559 0.228356 0.119428 0.0048738 0.00516739 -0.0033201
14111 2 0.425832 0.242944 0.124386 0.0177302 0.00595288 -0.00644416
11653 1 0.400706 0.245681 0.0568901 0.0044434 -0.0104961 0.00545112
892 1 0.0691289 0.00141485 0.151371 0.00523992 -0.00514039 -0.00761592
2235 2 0.10423 0.00109061 0.144372 -0.0113759 -0.00411988 0.00391512
14846 2 0.0512909 0.0572388 0.236497 -0.0108312 0.00721821 -0.021269
5752 1 0.117573 0.00836734 0.218093 0.00751655 -0.00104382 -0.00252206
5753 2 0.0992702 0.00186511 0.215677 0.00462504 0.0370297 0.0098995
334 1 0.123497 0.0608012 0.13522 0.00659261 -0.000187661 -0.00267658
893 2 0.0711588 0.0177381 0.162099 -0.00806267 -0.0040462 -0.0366164
14845 1 0.0569787 0.0384437 0.235369 0.00543957 -0.000652768 0.00180592
3323 2 0.0762276 0.1003 0.178397 -0.00193329 0.0216714 -0.0106015
4369 1 0.106068 0.114111 0.134683 -0.00240585 -0.000544991 0.00294674
4371 2 0.102314 0.113817 0.15388 -0.0127395 0.0290544 0.0100493
4891 1 0.0944801 0.0873468 0.236729 0.00450713 -0.00238335 -0.00422378
4892 2 0.0942696 0.0950229 0.21885 -0.00911473 -0.00912114 0.00617831
2233 1 0.12346 0.00209247 0.140847 0.00234068 0.00294324 0.00164644
5446 1 0.0745279 0.0444368 0.184345 0.00571047 0.00430861 0.00612709
5447 2 0.0935998 0.0491958 0.18504 0.0162684 0.0177516 -0.00165239
5448 2 0.0690511 0.0418549 0.203029 -0.0240917 -0.0127229 0.0136618
6493 1 0.00702562 0.0319065 0.212368 -0.000968733 0.00324825 -0.000361798
6494 2 0.0246265 0.0347614 0.220325 0.0192692 0.0101258 0.0013225
6495 2 0.00870031 0.0354226 0.193265 0.0198946 0.0103437 0.00151719
4893 2 0.0915173 0.102033 0.24921 -0.0161872 0.00777116 -0.0101378
6899 2 0.0308315 0.104494 0.138068 -0.00314681 0.00693229 -0.0059975
7870 1 0.0279831 0.0851232 0.23564 -0.00349163 0.00208849 0.000430429
7872 2 0.00903548 0.0815787 0.232486 0.0031013 0.0363617 -0.00739594
9919 1 0.00770551 0.0399132 0.157053 -0.00135537 0.00805361 -0.00412805
9920 2 0.0123288 0.0471018 0.139381 0.00419027 -0.00387458 -0.0122044
9921 2 0.0109722 0.0205649 0.155845 0.0210721 0.0236536 0.00664682
12544 1 0.0485749 0.0856487 0.1608 -0.00565026 -0.000849689 0.00398091
12545 2 0.0548385 0.0678658 0.166356 0.0100389 0.00731889 -0.0130926
12546 2 0.0346424 0.0911177 0.173472 0.00683054 0.00305313 0.0360593
12561 2 0.0588981 0.00289366 0.2251 0.00494835 -0.00412189 0.0058947
13894 1 0.0175592 0.116588 0.19239 9.23161e-05 -0.00306729 0.00232127
13895 2 0.0212912 0.108333 0.209793 0.0163637 0.000248247 -0.0263594
6900 2 0.00201256 0.110831 0.126741 0.00511484 0.0193447 -0.0163
3620 2 0.12292 0.0333159 0.242545 -0.0105494 0.00155777 0.00628076
4370 2 0.115405 0.0971303 0.131298 -0.00299057 0.0235801 -0.0132437
3322 1 0.0878087 0.113624 0.186896 -0.00109404 -0.00580364 0.00471118
335 2 0.133893 0.0461545 0.127736 0.0093834 0.00186025 -0.00611403
13 1 0.235478 0.00749232 0.221834 0.00721267 0.000623293 0.00236725
36 2 0.217572 0.120524 0.22535 -0.0136281 0.00129559 0.0175379
336 2 0.125919 0.05944 0.154681 -0.00832788 0.00731411 -0.0119335
1772 2 0.222546 0.0102244 0.150193 -0.00751017 -0.0131271 0.009338
2680 1 0.163074 0.0825255 0.221066 -0.00346198 0.00519548 -0.00080175
2681 2 0.169908 0.0643527 0.223975 0.0043739 0.00554539 0.00477677
2682 2 0.177636 0.0923086 0.212174 -0.00530481 -0.0162881 -0.0208725
3328 1 0.207658 0.101488 0.197216 0.00162249 -0.00186969 0.00418886
3329 2 0.215299 0.111515 0.182151 0.00725631 0.0162798 0.00520257
3330 2 0.218277 0.0849543 0.198627 -0.000751207 -0.00883188 -0.00263631
5575 1 0.127525 0.0543341 0.189206 0.000103423 -0.00145669 -0.00193581
5576 2 0.128589 0.0370288 0.198439 -0.00187351 0.0111457 -0.0106195
5577 2 0.138003 0.0669077 0.200042 -0.00296357 0.0357224 0.00528331
6378 2 0.179436 0.0403308 0.132782 0.0129563 -0.0136214 -0.0238298
6616 1 0.175073 0.101684 0.133291 -0.00806245 0.00370583 -0.00416131
6881 2 0.151911 0.106168 0.246796 -0.00672642 -0.00374382 -0.0149085
8134 1 0.183566 0.0317994 0.213652 0.0025949 -0.00364576 0.000356017
8135 2 0.200234 0.0237455 0.219848 -0.0125872 0.0232169 -0.0158256
8136 2 0.174137 0.0173611 0.2042 0.0089017 -0.00250977 -0.0330855
13810 1 0.186875 0.0553225 0.161589 -0.00388123 0.0109283 -0.000575349
13811 2 0.18112 0.0738609 0.159138 -0.0301735 -0.00171617 -0.0136527
13812 2 0.185395 0.0508998 0.180521 0.0086873 -0.00363382 0.0185039
5071 1 0.239109 0.0575309 0.200442 -0.00174168 0.000209885 -0.00503854
5072 2 0.238605 0.0417829 0.212167 0.0100372 0.00814014 -0.0177071
5073 2 0.239836 0.0501675 0.182349 0.0174064 -0.0196471 0.014418
11929 1 0.249936 0.0321624 0.152379 0.00210096 -0.00884334 -0.005631
2234 2 0.132688 0.00282051 0.157952 -0.00199957 -0.00298294 -0.0049085
1773 2 0.196019 0.00710179 0.13374 0.00708657 -0.0161989 -0.0162971
1065 2 0.373864 0.0796633 0.236273 -0.0223054 0.00889697 0.0150919
1064 2 0.34631 0.08706 0.248286 -0.0058175 0.0172475 0.00700976
7082 2 0.262144 0.0811563 0.215133 -0.0152641 0.000254594 0.00925713
11931 2 0.251738 0.0478802 0.14094 -0.00838465 -0.0168154 0.00145216
1237 1 0.347431 0.0603319 0.17755 -0.00710279 -0.000244269 0.00381717
1238 2 0.351106 0.0408944 0.178488 0.01207 0.00697284 -0.00155779
1239 2 0.362126 0.0686851 0.187429 -0.0145991 -0.000647752 -0.00907411
2279 2 0.283277 0.117408 0.195065 -0.00272695 0.0204595 -0.0154285
2986 1 0.264303 0.0837318 0.136958 -0.00219649 0.00685341 0.000519454
2987 2 0.255718 0.095491 0.149991 -0.0126517 0.0314515 -0.00624806
2988 2 0.283392 0.0832111 0.141636 -0.00928826 0.0129263 -0.00303048
3205 1 0.353833 0.124846 0.190081 0.00703178 -0.00347497 0.00794976
3207 2 0.342216 0.115904 0.203172 -0.0206121 0.00343951 0.00843147
5923 1 0.316781 0.0935075 0.148095 0.0013258 0.00260053 -0.00520695
5924 2 0.310976 0.1083 0.159665 -0.018056 -0.0114812 2.87147e-05
5925 2 0.329273 0.0826945 0.158944 -0.0161633 0.0162874 0.000346044
6667 1 0.29622 0.0353647 0.232177 0.00322798 0.00231513 0.00461481
6668 2 0.283066 0.0352369 0.246632 0.0126987 -0.0302823 0.0116709
6669 2 0.313478 0.0322388 0.240656 0.0101314 0.0163771 0.00317287
7477 1 0.323188 0.105365 0.230399 0.00429283 0.00336515 0.00122114
7478 2 0.320082 0.123754 0.236369 -0.00417682 0.0158462 0.0231142
7479 2 0.305505 0.0968559 0.229934 -0.00387078 0.00445626 0.0157715
11197 1 0.353687 0.008175 0.181055 -0.000599747 -0.00194934 -0.000385872
11930 2 0.267028 0.0308383 0.162065 -0.00237352 -0.00828974 0.00406841
12451 1 0.297354 0.0354673 0.178225 -0.00465133 -0.00196343 0.002578
12452 2 0.314163 0.0452535 0.176074 -0.0291705 0.0284453 0.00582789
12453 2 0.295074 0.0341729 0.197842 0.00756535 -0.00407513 0.00497045
7081 1 0.27 0.0983298 0.220476 -7.13415e-05 0.000971766 -0.000274042
7083 2 0.256436 0.107403 0.231316 0.02536 -0.00524267 0.0251749
1433 2 0.301349 0.0070297 0.156872 -0.0134835 0.0114674 0.0112606
7627 1 0.440903 0.00906879 0.132366 -0.00168723 0.000973651 -0.000662177
10769 2 0.452015 0.112112 0.144141 -0.0179993 0.00516298 0.00395326
2291 2 0.485448 0.013356 0.173384 -0.0132626 0.00311152 -0.00164542
7626 2 0.427995 0.121129 0.231502 -0.00288458 -0.0189053 0.0126077
5289 2 0.487747 0.0427956 0.150094 0.0149862 0.0148068 0.012364
7629 2 0.45825 0.000398027 0.13278 -0.015765 -0.0103931 -0.0141963
4915 1 0.402597 0.0757629 0.146906 0.00494184 -0.00406873 0.00218802
4916 2 0.393392 0.0930342 0.14547 -0.010287 0.00859678 -0.0265921
4917 2 0.393999 0.063843 0.133754 0.000358554 -0.0157999 -0.00565524
5287 1 0.478988 0.0494691 0.166274 0.00804283 0.00399813 -0.0045914
5288 2 0.470964 0.066696 0.161562 0.00274292 0.0263719 -0.00671321
9973 1 0.44131 0.095773 0.210071 0.0022434 0.0027311 -0.00496365
9974 2 0.447153 0.0992334 0.19166 -0.00185537 -0.00190439 -0.02197
9975 2 0.450017 0.0791678 0.215565 -0.0139675 -0.0139301 0.00540621
10768 1 0.451303 0.0966067 0.155871 -0.000472498 -0.00411571 -0.00177697
10770 2 0.433951 0.0879057 0.152442 0.00901679 0.0057714 0.00919952
12100 1 0.387621 0.0857163 0.206176 -0.0065654 -0.00194098 -1.97049e-05
12101 2 0.407062 0.0879959 0.205672 0.0264955 0.00316052 0.0253507
12102 2 0.379533 0.101593 0.19788 0.0166011 0.0277231 -0.0198399
12712 1 0.411423 0.0138409 0.226968 -0.000461438 0.00109198 0.00227241
12713 2 0.408279 0.0221193 0.209358 -0.0113529 -0.00603578 -0.00484765
12714 2 0.429495 0.00618231 0.225311 -0.0167939 0.0196307 0.0175281
12911 2 0.383578 0.0131313 0.131203 0.008715 -0.0222275 -0.00128199
13369 1 0.470529 0.0485932 0.219251 -0.00637278 0.00247752 0.00222896
13370 2 0.466885 0.0295262 0.222474 0.0218863 -0.0149388 0.0113465
13371 2 0.474418 0.0494918 0.199921 -0.0214773 0.0129088 -0.0162216
14143 1 0.417133 0.0331518 0.177263 0.0102065 0.00350856 -0.000440601
14144 2 0.410593 0.0495632 0.168814 0.02045 0.0270286 -0.000130213
14145 2 0.427272 0.0236306 0.163566 0.0337433 0.0072831 0.00180865
1786 1 0.0459313 0.202467 0.136738 -0.00556178 -0.00205482 0.00357064
1787 2 0.0500862 0.183882 0.132599 -0.0238303 0.0226829 -0.00269174
12121 1 0.0615027 0.150772 0.127015 -0.0044676 -0.000578815 -0.000599047
11583 2 0.00351038 0.228296 0.16387 0.00294618 -0.00958283 0.00486617
12122 2 0.0770169 0.139023 0.128291 -0.0258569 -0.0188426 -0.0233383
1307 2 0.0805072 0.241435 0.242049 -0.0268434 0.00963406 0.0314312
1788 2 0.0264311 0.203906 0.137907 0.0319953 0.000743063 -0.0344929
1887 2 0.0169188 0.248271 0.249269 0.00284475 0.00932405 -0.00218696
3324 2 0.0766172 0.12974 0.188572 0.00831097 -0.00424619 0.0114088
4783 1 0.0358088 0.151469 0.24939 0.00140611 -0.000715498 0.00233012
4784 2 0.0203504 0.156119 0.238362 -0.0248312 -0.0076983 0.00766908
4785 2 0.0513503 0.160905 0.242187 -0.0161759 -0.00888894 0.0251571
6826 1 0.0547794 0.155687 0.1832 -0.00178234 0.00186621 -0.00309098
6827 2 0.0504933 0.17268 0.192113 -0.00846982 -0.007666 0.0156498
6828 2 0.0576115 0.159902 0.164454 0.00788065 0.0150457 -0.0366363
7618 1 0.0331903 0.197674 0.208717 -0.00439571 -0.00318462 0.00952459
7619 2 0.0164678 0.187498 0.21056 0.0265634 -0.00608443 -0.0266849
7620 2 0.0356836 0.206402 0.22607 -0.00973556 -0.0442716 0.000216225
11479 1 0.106924 0.194458 0.17087 -0.00374664 0.00523298 0.00217777
11480 2 0.0988035 0.205466 0.156715 0.0228238 -0.00179769 0.0330222
11481 2 0.112811 0.20782 0.184047 0.00727656 0.0315601 -0.0114901
11581 1 0.0130628 0.237261 0.178393 -0.00062806 -0.00587434 -0.00249701
11582 2 0.0229812 0.223236 0.187861 0.00231544 -0.00200917 -0.0100453
11857 1 0.11749 0.238676 0.201153 0.00840214 -0.00993854 -0.000769779
11859 2 0.101133 0.246352 0.208436 0.00991861 -0.00122115 0.00257384
13837 1 0.0931148 0.23063 0.133715 0.00220109 -0.00156791 0.00482396
13839 2 0.0743248 0.224983 0.132252 0.0241556 -0.0429618 -0.0221653
13896 2 0.0298918 0.131705 0.190572 0.0209404 0.037499 0.015744
14518 1 0.124698 0.164917 0.127775 0.00254905 0.00435357 -0.000623188
14519 2 0.12018 0.145967 0.12963 0.020062 -0.00493835 -0.0325197
14520 2 0.117164 0.174384 0.143171 -0.00778381 0.00580373 -0.0184207
14650 1 0.0849835 0.176161 0.240355 -0.0020799 0.00416038 0.00110378
14651 2 0.0874648 0.195149 0.243987 -0.0185039 0.00341328 0.022916
14652 2 0.0988606 0.170877 0.227566 0.00525326 0.00732086 -0.0118991
14869 1 0.121317 0.155301 0.204843 -0.0033705 -0.00224577 0.00854662
14870 2 0.114837 0.137884 0.198926 0.035148 -0.00235026 0.0135981
14871 2 0.116829 0.168309 0.190771 0.0018439 -0.0123376 0.00295473
13838 2 0.0944793 0.248622 0.126039 -0.0112804 0.0151608 0.0236683
5074 1 0.226414 0.24384 0.129155 -0.000992517 -0.0034459 0.00427216
34 1 0.227852 0.127926 0.240339 -0.00163574 -0.00327271 0.00902229
4959 2 0.231779 0.135239 0.140854 -0.00283154 0.00154869 -0.0350975
9393 2 0.222873 0.213083 0.249313 -0.019329 -0.0138772 0.000570527
4279 1 0.17346 0.158104 0.220579 -0.00213141 -0.00252546 0.00367699
4280 2 0.154294 0.158244 0.216355 -0.00201627 -0.00555136 0.0241623
4281 2 0.182547 0.159405 0.203166 -0.0101611 -0.00408309 0.0242451
6882 2 0.159966 0.136238 0.248003 0.0136245 -0.00755389 0.0178422
7597 1 0.206071 0.204209 0.220653 0.00505973 -0.00598287 -0.001823
7598 2 0.195724 0.18791 0.22385 -0.00939434 -0.0198548 0.00861161
7599 2 0.194862 0.215338 0.208897 -0.0230609 0.00329443 0.0250489
8191 1 0.14884 0.231508 0.140092 0.0056645 -0.00148777 0.00137658
8192 2 0.156183 0.215371 0.131789 0.0382836 0.00755764 -0.000138634
8193 2 0.1294 0.230987 0.137534 0.0155443 0.00337076 0.0265168
9562 1 0.193553 0.167547 0.171429 0.00295623 0.00047511 -0.00370603
9563 2 0.201366 0.152215 0.162516 -0.0183605 0.0246894 -0.0100654
9564 2 0.186696 0.179595 0.157813 0.0262541 0.0123916 0.00876514
10381 1 0.183316 0.235679 0.182158 0.00566027 0.00619035 0.00728247
10383 2 0.169331 0.233251 0.168603 -0.000483702 -0.0061676 0.000424537
10927 1 0.242811 0.21869 0.17844 0.00482699 0.00330222 -0.00262634
10928 2 0.233984 0.224185 0.161813 -0.00279737 -0.00792032 -0.00686266
10929 2 0.228892 0.210686 0.189688 -0.00810452 -0.0283822 0.0230109
11500 1 0.152969 0.227042 0.2446 -0.00353264 -0.00486807 -0.00439669
11501 2 0.140195 0.228551 0.229896 0.00374008 0.000375136 0.00379786
11502 2 0.165537 0.241909 0.242307 -0.00123853 -0.00131497 0.000634268
4957 1 0.235869 0.127157 0.15822 -0.00155126 -0.0035564 -0.000654403
13350 2 0.250826 0.152789 0.24405 0.0131747 -0.00221638 0.0187135
13348 1 0.262977 0.167632 0.248646 -0.00484516 -0.0016024 -0.00458608
13411 1 0.365629 0.218266 0.149262 -0.00461523 0.00702089 0.000192208